 Title Card Required
GAUSSIAN            173 MOL ORBITALS    274 PRIMITIVES        1 NUCLEI
  B    1    (CENTRE  1)   0.00000000  0.00000000  0.00000000  CHARGE =  5.0
CENTRE ASSIGNMENTS    1  1  1  1  1  1  1  1  1  1  1  1  1  1  1  1  1  1  1  1
CENTRE ASSIGNMENTS    1  1  1  1  1  1  1  1  1  1  1  1  1  1  1  1  1  1  1  1
CENTRE ASSIGNMENTS    1  1  1  1  1  1  1  1  1  1  1  1  1  1  1  1  1  1  1  1
CENTRE ASSIGNMENTS    1  1  1  1  1  1  1  1  1  1  1  1  1  1  1  1  1  1  1  1
CENTRE ASSIGNMENTS    1  1  1  1  1  1  1  1  1  1  1  1  1  1  1  1  1  1  1  1
CENTRE ASSIGNMENTS    1  1  1  1  1  1  1  1  1  1  1  1  1  1  1  1  1  1  1  1
CENTRE ASSIGNMENTS    1  1  1  1  1  1  1  1  1  1  1  1  1  1  1  1  1  1  1  1
CENTRE ASSIGNMENTS    1  1  1  1  1  1  1  1  1  1  1  1  1  1  1  1  1  1  1  1
CENTRE ASSIGNMENTS    1  1  1  1  1  1  1  1  1  1  1  1  1  1  1  1  1  1  1  1
CENTRE ASSIGNMENTS    1  1  1  1  1  1  1  1  1  1  1  1  1  1  1  1  1  1  1  1
CENTRE ASSIGNMENTS    1  1  1  1  1  1  1  1  1  1  1  1  1  1  1  1  1  1  1  1
CENTRE ASSIGNMENTS    1  1  1  1  1  1  1  1  1  1  1  1  1  1  1  1  1  1  1  1
CENTRE ASSIGNMENTS    1  1  1  1  1  1  1  1  1  1  1  1  1  1  1  1  1  1  1  1
CENTRE ASSIGNMENTS    1  1  1  1  1  1  1  1  1  1  1  1  1  1
TYPE ASSIGNMENTS      1  1  1  1  1  1  1  1  1  1  1  1  1  1  1  1  1  1  1  1
TYPE ASSIGNMENTS      1  1  1  1  1  2  2  2  2  3  3  3  3  4  4  4  4  2  3  4
TYPE ASSIGNMENTS      2  3  4  2  3  4  2  3  4  2  3  4  2  3  4  2  3  4  2  3
TYPE ASSIGNMENTS      4  2  3  4  5  6  7  8  9 10  5  6  7  8  9 10  5  6  7  8
TYPE ASSIGNMENTS      9 10  5  6  7  8  9 10  5  6  7  8  9 10  5  6  7  8  9 10
TYPE ASSIGNMENTS      5  6  7  8  9 10  5  6  7  8  9 10 11 12 13 17 14 15 18 19
TYPE ASSIGNMENTS     16 20 11 12 13 17 14 15 18 19 16 20 11 12 13 17 14 15 18 19
TYPE ASSIGNMENTS     16 20 11 12 13 17 14 15 18 19 16 20 11 12 13 17 14 15 18 19
TYPE ASSIGNMENTS     16 20 11 12 13 17 14 15 18 19 16 20 23 29 32 27 22 28 35 34
TYPE ASSIGNMENTS     26 31 33 30 25 24 21 23 29 32 27 22 28 35 34 26 31 33 30 25
TYPE ASSIGNMENTS     24 21 23 29 32 27 22 28 35 34 26 31 33 30 25 24 21 23 29 32
TYPE ASSIGNMENTS     27 22 28 35 34 26 31 33 30 25 24 21 36 37 38 39 40 41 42 43
TYPE ASSIGNMENTS     44 45 46 47 48 49 50 51 52 53 54 55 56 36 37 38 39 40 41 42
TYPE ASSIGNMENTS     43 44 45 46 47 48 49 50 51 52 53 54 55 56
EXPONENTS  0.6826000D+05 0.1023000D+05 0.2328000D+04 0.6604000D+03 0.2162000D+03
EXPONENTS  0.7860000D+02 0.3098000D+02 0.1296000D+02 0.5659000D+01 0.2328000D+04
EXPONENTS  0.2162000D+03 0.7860000D+02 0.3098000D+02 0.1296000D+02 0.5659000D+01
EXPONENTS  0.2556000D+01 0.1175000D+01 0.4249000D+00 0.1712000D+00 0.6913000D-01
EXPONENTS  0.5814000D+01 0.1289400D+02 0.2859500D+02 0.6341900D+02 0.2610000D-01
EXPONENTS  0.6644000D+02 0.1571000D+02 0.4936000D+01 0.1770000D+01 0.6644000D+02
EXPONENTS  0.1571000D+02 0.4936000D+01 0.1770000D+01 0.6644000D+02 0.1571000D+02
EXPONENTS  0.4936000D+01 0.1770000D+01 0.7008000D+00 0.7008000D+00 0.7008000D+00
EXPONENTS  0.2901000D+00 0.2901000D+00 0.2901000D+00 0.1211000D+00 0.1211000D+00
EXPONENTS  0.1211000D+00 0.4973000D-01 0.4973000D-01 0.4973000D-01 0.3974000D+01
EXPONENTS  0.3974000D+01 0.3974000D+01 0.1027200D+02 0.1027200D+02 0.1027200D+02
EXPONENTS  0.2654800D+02 0.2654800D+02 0.2654800D+02 0.6861300D+02 0.6861300D+02
EXPONENTS  0.6861300D+02 0.1570000D-01 0.1570000D-01 0.1570000D-01 0.2010000D+01
EXPONENTS  0.2010000D+01 0.2010000D+01 0.2010000D+01 0.2010000D+01 0.2010000D+01
EXPONENTS  0.7960000D+00 0.7960000D+00 0.7960000D+00 0.7960000D+00 0.7960000D+00
EXPONENTS  0.7960000D+00 0.3160000D+00 0.3160000D+00 0.3160000D+00 0.3160000D+00
EXPONENTS  0.3160000D+00 0.3160000D+00 0.1250000D+00 0.1250000D+00 0.1250000D+00
EXPONENTS  0.1250000D+00 0.1250000D+00 0.1250000D+00 0.4955000D+01 0.4955000D+01
EXPONENTS  0.4955000D+01 0.4955000D+01 0.4955000D+01 0.4955000D+01 0.1467100D+02
EXPONENTS  0.1467100D+02 0.1467100D+02 0.1467100D+02 0.1467100D+02 0.1467100D+02
EXPONENTS  0.4343700D+02 0.4343700D+02 0.4343700D+02 0.4343700D+02 0.4343700D+02
EXPONENTS  0.4343700D+02 0.4310000D-01 0.4310000D-01 0.4310000D-01 0.4310000D-01
EXPONENTS  0.4310000D-01 0.4310000D-01 0.1215000D+01 0.1215000D+01 0.1215000D+01
EXPONENTS  0.1215000D+01 0.1215000D+01 0.1215000D+01 0.1215000D+01 0.1215000D+01
EXPONENTS  0.1215000D+01 0.1215000D+01 0.5250000D+00 0.5250000D+00 0.5250000D+00
EXPONENTS  0.5250000D+00 0.5250000D+00 0.5250000D+00 0.5250000D+00 0.5250000D+00
EXPONENTS  0.5250000D+00 0.5250000D+00 0.2270000D+00 0.2270000D+00 0.2270000D+00
EXPONENTS  0.2270000D+00 0.2270000D+00 0.2270000D+00 0.2270000D+00 0.2270000D+00
EXPONENTS  0.2270000D+00 0.2270000D+00 0.4292000D+01 0.4292000D+01 0.4292000D+01
EXPONENTS  0.4292000D+01 0.4292000D+01 0.4292000D+01 0.4292000D+01 0.4292000D+01
EXPONENTS  0.4292000D+01 0.4292000D+01 0.2045000D+02 0.2045000D+02 0.2045000D+02
EXPONENTS  0.2045000D+02 0.2045000D+02 0.2045000D+02 0.2045000D+02 0.2045000D+02
EXPONENTS  0.2045000D+02 0.2045000D+02 0.8430000D-01 0.8430000D-01 0.8430000D-01
EXPONENTS  0.8430000D-01 0.8430000D-01 0.8430000D-01 0.8430000D-01 0.8430000D-01
EXPONENTS  0.8430000D-01 0.8430000D-01 0.1124000D+01 0.1124000D+01 0.1124000D+01
EXPONENTS  0.1124000D+01 0.1124000D+01 0.1124000D+01 0.1124000D+01 0.1124000D+01
EXPONENTS  0.1124000D+01 0.1124000D+01 0.1124000D+01 0.1124000D+01 0.1124000D+01
EXPONENTS  0.1124000D+01 0.1124000D+01 0.4610000D+00 0.4610000D+00 0.4610000D+00
EXPONENTS  0.4610000D+00 0.4610000D+00 0.4610000D+00 0.4610000D+00 0.4610000D+00
EXPONENTS  0.4610000D+00 0.4610000D+00 0.4610000D+00 0.4610000D+00 0.4610000D+00
EXPONENTS  0.4610000D+00 0.4610000D+00 0.4388000D+01 0.4388000D+01 0.4388000D+01
EXPONENTS  0.4388000D+01 0.4388000D+01 0.4388000D+01 0.4388000D+01 0.4388000D+01
EXPONENTS  0.4388000D+01 0.4388000D+01 0.4388000D+01 0.4388000D+01 0.4388000D+01
EXPONENTS  0.4388000D+01 0.4388000D+01 0.2020000D+00 0.2020000D+00 0.2020000D+00
EXPONENTS  0.2020000D+00 0.2020000D+00 0.2020000D+00 0.2020000D+00 0.2020000D+00
EXPONENTS  0.2020000D+00 0.2020000D+00 0.2020000D+00 0.2020000D+00 0.2020000D+00
EXPONENTS  0.2020000D+00 0.2020000D+00 0.8340000D+00 0.8340000D+00 0.8340000D+00
EXPONENTS  0.8340000D+00 0.8340000D+00 0.8340000D+00 0.8340000D+00 0.8340000D+00
EXPONENTS  0.8340000D+00 0.8340000D+00 0.8340000D+00 0.8340000D+00 0.8340000D+00
EXPONENTS  0.8340000D+00 0.8340000D+00 0.8340000D+00 0.8340000D+00 0.8340000D+00
EXPONENTS  0.8340000D+00 0.8340000D+00 0.8340000D+00 0.3840000D+00 0.3840000D+00
EXPONENTS  0.3840000D+00 0.3840000D+00 0.3840000D+00 0.3840000D+00 0.3840000D+00
EXPONENTS  0.3840000D+00 0.3840000D+00 0.3840000D+00 0.3840000D+00 0.3840000D+00
EXPONENTS  0.3840000D+00 0.3840000D+00 0.3840000D+00 0.3840000D+00 0.3840000D+00
EXPONENTS  0.3840000D+00 0.3840000D+00 0.3840000D+00 0.3840000D+00
MO    1     MO 0.0        OCC NO =    1.9976361  ORB. ENERGY =    0.000000
  0.71031342D-01  0.13632289D+00  0.23360727D+00  0.37805514D+00  0.58122365D+00
  0.81278666D+00  0.10199563D+01  0.10025267D+01  0.66921767D+00 -0.10119340D-02
 -0.35946185D-03  0.16468721D-01  0.42475706D-01  0.14094759D+00  0.26135156D+00
  0.43843264D+00  0.70623701D-01 -0.18449809D-02 -0.18587843D-02 -0.10211426D-03
 -0.11018675D-03  0.15102384D-04  0.26477470D-03  0.78237956D-03 -0.26179355D-06
  0.00000000D+00  0.00000000D+00  0.00000000D+00  0.00000000D+00  0.00000000D+00
  0.00000000D+00  0.00000000D+00  0.00000000D+00  0.00000000D+00  0.00000000D+00
  0.00000000D+00  0.00000000D+00  0.00000000D+00  0.00000000D+00  0.00000000D+00
  0.00000000D+00  0.00000000D+00  0.00000000D+00  0.00000000D+00  0.00000000D+00
  0.00000000D+00  0.00000000D+00  0.00000000D+00  0.00000000D+00  0.00000000D+00
  0.00000000D+00  0.00000000D+00  0.00000000D+00  0.00000000D+00  0.00000000D+00
  0.00000000D+00  0.00000000D+00  0.00000000D+00  0.00000000D+00  0.00000000D+00
  0.00000000D+00  0.00000000D+00  0.00000000D+00  0.00000000D+00 -0.92598844D-15
  0.14040723D-14 -0.47808383D-15 -0.12978580D-31 -0.92437918D-32  0.81961402D-15
  0.18661843D-15 -0.41969486D-15  0.23307643D-15 -0.78402857D-32 -0.19174907D-32
 -0.22759713D-15 -0.55055856D-16  0.93854059D-16 -0.38798203D-16  0.17940154D-32
  0.50377458D-33  0.27957929D-16  0.95724483D-17 -0.13664079D-16  0.40916303D-17
 -0.28730068D-33 -0.76104104D-34  0.17848255D-17  0.30503906D-14 -0.33066280D-14
  0.25623742D-15  0.41111817D-30  0.14367167D-30  0.68346561D-15 -0.43996080D-14
  0.18587399D-13 -0.14187790D-13 -0.29809754D-29 -0.10438640D-29  0.14772020D-13
  0.74015799D-14 -0.50278902D-13  0.42877322D-13  0.13509027D-29  0.86885239D-30
 -0.22332899D-12 -0.69300110D-18  0.69914233D-18 -0.61412351D-20  0.15865620D-34
  0.42819140D-35 -0.27747446D-18  0.00000000D+00  0.00000000D+00  0.00000000D+00
  0.00000000D+00  0.00000000D+00  0.00000000D+00  0.00000000D+00  0.00000000D+00
  0.00000000D+00  0.00000000D+00  0.00000000D+00  0.00000000D+00  0.00000000D+00
  0.00000000D+00  0.00000000D+00  0.00000000D+00  0.00000000D+00  0.00000000D+00
  0.00000000D+00  0.00000000D+00  0.00000000D+00  0.00000000D+00  0.00000000D+00
  0.00000000D+00  0.00000000D+00  0.00000000D+00  0.00000000D+00  0.00000000D+00
  0.00000000D+00  0.00000000D+00  0.00000000D+00  0.00000000D+00  0.00000000D+00
  0.00000000D+00  0.00000000D+00  0.00000000D+00  0.00000000D+00  0.00000000D+00
  0.00000000D+00  0.00000000D+00  0.00000000D+00  0.00000000D+00  0.00000000D+00
  0.00000000D+00  0.00000000D+00  0.00000000D+00  0.00000000D+00  0.00000000D+00
  0.00000000D+00  0.00000000D+00  0.00000000D+00  0.00000000D+00  0.00000000D+00
  0.00000000D+00  0.00000000D+00  0.00000000D+00  0.00000000D+00  0.00000000D+00
  0.00000000D+00  0.00000000D+00  0.10984340D-15 -0.95752546D-15 -0.36926722D-15
  0.18718162D-14  0.36826264D-16  0.45922671D-32 -0.24906730D-32 -0.11274224D-32
 -0.40833233D-31 -0.28979321D-15 -0.27428722D-14  0.14830964D-15 -0.42164597D-32
  0.41663457D-31  0.23580596D-16 -0.14566527D-16 -0.19365714D-16  0.44877075D-16
  0.38629701D-16 -0.29621015D-16 -0.14249918D-32 -0.50762567D-33 -0.22262185D-33
  0.59485897D-32  0.42522086D-16 -0.57791962D-16  0.13284901D-15  0.14991991D-32
 -0.57793811D-32 -0.29228517D-16 -0.35857132D-14  0.39716262D-13  0.10136332D-13
 -0.77791748D-13 -0.68450686D-14 -0.53110290D-30 -0.91597956D-31 -0.34413339D-31
  0.30006833D-29  0.11377948D-13  0.11422646D-12  0.30934080D-13  0.54257401D-30
 -0.29701507D-29 -0.70520046D-14  0.10990399D-17  0.82161129D-17 -0.33280184D-17
 -0.16151265D-16  0.86078636D-18  0.74256341D-34 -0.14310441D-34 -0.64655416D-35
 -0.51530679D-33 -0.32662211D-17  0.23805457D-16 -0.18366998D-17 -0.72101160D-34
  0.52007694D-33  0.85048682D-18  0.00000000D+00  0.00000000D+00  0.00000000D+00
  0.00000000D+00  0.00000000D+00  0.00000000D+00  0.00000000D+00  0.00000000D+00
  0.00000000D+00  0.00000000D+00  0.00000000D+00  0.00000000D+00  0.00000000D+00
  0.00000000D+00  0.00000000D+00  0.00000000D+00  0.00000000D+00  0.00000000D+00
  0.00000000D+00  0.00000000D+00  0.00000000D+00  0.00000000D+00  0.00000000D+00
  0.00000000D+00  0.00000000D+00  0.00000000D+00  0.00000000D+00  0.00000000D+00
  0.00000000D+00  0.00000000D+00  0.00000000D+00  0.00000000D+00  0.00000000D+00
  0.00000000D+00  0.00000000D+00  0.00000000D+00  0.00000000D+00  0.00000000D+00
  0.00000000D+00  0.00000000D+00  0.00000000D+00  0.00000000D+00
MO    2     MO 0.0        OCC NO =    1.8478551  ORB. ENERGY =    0.000000
 -0.15057736D-01 -0.28898710D-01 -0.49521753D-01 -0.80142854D-01 -0.12321198D+00
 -0.17230038D+00 -0.21621770D+00 -0.21252285D+00 -0.14186558D+00  0.49805658D-03
  0.17692095D-03 -0.81056219D-02 -0.20905814D-01 -0.69371984D-01 -0.12863275D+00
 -0.21578902D+00 -0.43794794D-01  0.17269349D+00  0.11604557D+00  0.66422805D-02
 -0.59839138D-02  0.16705708D-02 -0.20133275D-02  0.29927917D-03 -0.61930272D-05
  0.00000000D+00  0.00000000D+00  0.00000000D+00  0.00000000D+00  0.00000000D+00
  0.00000000D+00  0.00000000D+00  0.00000000D+00  0.00000000D+00  0.00000000D+00
  0.00000000D+00  0.00000000D+00  0.00000000D+00  0.00000000D+00  0.00000000D+00
  0.00000000D+00  0.00000000D+00  0.00000000D+00  0.00000000D+00  0.00000000D+00
  0.00000000D+00  0.00000000D+00  0.00000000D+00  0.00000000D+00  0.00000000D+00
  0.00000000D+00  0.00000000D+00  0.00000000D+00  0.00000000D+00  0.00000000D+00
  0.00000000D+00  0.00000000D+00  0.00000000D+00  0.00000000D+00  0.00000000D+00
  0.00000000D+00  0.00000000D+00  0.00000000D+00  0.00000000D+00 -0.52037259D-14
  0.67096019D-14 -0.15058760D-14 -0.43724319D-29 -0.12328968D-29 -0.36894816D-16
  0.35421978D-14 -0.10624549D-14 -0.24797429D-14  0.15047688D-29  0.49421857D-30
 -0.35853778D-16 -0.42249853D-15 -0.43810377D-15  0.86060230D-15 -0.22750899D-30
 -0.78072941D-31 -0.80727289D-17  0.61691461D-16 -0.12432930D-16 -0.49258531D-16
  0.20368745D-31  0.70407886D-32 -0.42058974D-18  0.42150041D-14 -0.25575931D-14
 -0.16574110D-14  0.28038315D-29  0.82929298D-30  0.76661547D-15  0.61922846D-14
 -0.54090264D-14 -0.78325818D-15  0.25796462D-29  0.83309788D-30  0.59966210D-14
 -0.74782853D-14  0.24645612D-13 -0.17167327D-13 -0.66330241D-29 -0.22298600D-29
 -0.63717147D-14 -0.21137505D-17 -0.11291683D-18  0.22266673D-17 -0.86722541D-33
 -0.29951210D-33  0.10348867D-18  0.00000000D+00  0.00000000D+00  0.00000000D+00
  0.00000000D+00  0.00000000D+00  0.00000000D+00  0.00000000D+00  0.00000000D+00
  0.00000000D+00  0.00000000D+00  0.00000000D+00  0.00000000D+00  0.00000000D+00
  0.00000000D+00  0.00000000D+00  0.00000000D+00  0.00000000D+00  0.00000000D+00
  0.00000000D+00  0.00000000D+00  0.00000000D+00  0.00000000D+00  0.00000000D+00
  0.00000000D+00  0.00000000D+00  0.00000000D+00  0.00000000D+00  0.00000000D+00
  0.00000000D+00  0.00000000D+00  0.00000000D+00  0.00000000D+00  0.00000000D+00
  0.00000000D+00  0.00000000D+00  0.00000000D+00  0.00000000D+00  0.00000000D+00
  0.00000000D+00  0.00000000D+00  0.00000000D+00  0.00000000D+00  0.00000000D+00
  0.00000000D+00  0.00000000D+00  0.00000000D+00  0.00000000D+00  0.00000000D+00
  0.00000000D+00  0.00000000D+00  0.00000000D+00  0.00000000D+00  0.00000000D+00
  0.00000000D+00  0.00000000D+00  0.00000000D+00  0.00000000D+00  0.00000000D+00
  0.00000000D+00  0.00000000D+00 -0.62465254D-15  0.10797077D-14  0.17985556D-14
 -0.38942638D-15 -0.64236953D-15 -0.45403220D-31 -0.39334065D-32 -0.16203543D-32
  0.25381889D-30  0.19493596D-14 -0.20708438D-14  0.20556616D-14  0.45943338D-31
 -0.25250776D-30 -0.66750353D-15  0.18211127D-15  0.22096162D-16 -0.53833720D-15
 -0.80143680D-17  0.18481201D-15  0.14441255D-31  0.16832842D-33  0.76895675D-34
 -0.83905793D-31 -0.55433042D-15 -0.42245382D-16 -0.57053483D-15 -0.14466887D-31
  0.83849684D-31  0.18747754D-15 -0.26251360D-14 -0.44835330D-13  0.74420344D-14
  0.16179941D-13 -0.12240633D-14 -0.81612249D-31  0.25454438D-30  0.98580118D-31
  0.97802964D-30  0.83087817D-14  0.85966165D-13 -0.97654804D-16  0.48752209D-31
 -0.10628778D-29 -0.13685212D-14 -0.55991799D-16 -0.92947201D-17  0.16692062D-15
  0.33576148D-17 -0.55877431D-16 -0.44658231D-32  0.13660447D-34  0.55756420D-35
  0.26290744D-31  0.16903017D-15  0.17811316D-16  0.16834397D-15  0.44639645D-32
 -0.26295297D-31 -0.56229023D-16  0.00000000D+00  0.00000000D+00  0.00000000D+00
  0.00000000D+00  0.00000000D+00  0.00000000D+00  0.00000000D+00  0.00000000D+00
  0.00000000D+00  0.00000000D+00  0.00000000D+00  0.00000000D+00  0.00000000D+00
  0.00000000D+00  0.00000000D+00  0.00000000D+00  0.00000000D+00  0.00000000D+00
  0.00000000D+00  0.00000000D+00  0.00000000D+00  0.00000000D+00  0.00000000D+00
  0.00000000D+00  0.00000000D+00  0.00000000D+00  0.00000000D+00  0.00000000D+00
  0.00000000D+00  0.00000000D+00  0.00000000D+00  0.00000000D+00  0.00000000D+00
  0.00000000D+00  0.00000000D+00  0.00000000D+00  0.00000000D+00  0.00000000D+00
  0.00000000D+00  0.00000000D+00  0.00000000D+00  0.00000000D+00
MO    3     MO 0.0        OCC NO =    0.0500111  ORB. ENERGY =    0.000000
  0.00000000D+00  0.00000000D+00  0.00000000D+00  0.00000000D+00  0.00000000D+00
  0.00000000D+00  0.00000000D+00  0.00000000D+00  0.00000000D+00  0.00000000D+00
  0.00000000D+00  0.00000000D+00  0.00000000D+00  0.00000000D+00  0.00000000D+00
  0.00000000D+00  0.00000000D+00  0.00000000D+00  0.00000000D+00  0.00000000D+00
  0.00000000D+00  0.00000000D+00  0.00000000D+00  0.00000000D+00  0.00000000D+00
  0.00000000D+00  0.00000000D+00  0.00000000D+00  0.00000000D+00  0.00000000D+00
  0.00000000D+00  0.00000000D+00  0.00000000D+00  0.20361389D+00  0.25676561D+00
  0.26464145D+00  0.24098927D+00  0.00000000D+00  0.00000000D+00  0.31838484D+00
  0.00000000D+00  0.00000000D+00  0.16414973D+00  0.00000000D+00  0.00000000D+00
  0.14105807D-01  0.00000000D+00  0.00000000D+00 -0.11483285D-03  0.00000000D+00
  0.00000000D+00  0.48120108D-01  0.00000000D+00  0.00000000D+00  0.65265134D-01
  0.00000000D+00  0.00000000D+00  0.72077534D-01  0.00000000D+00  0.00000000D+00
  0.42333554D-01  0.00000000D+00  0.00000000D+00  0.63729122D-05  0.00000000D+00
  0.00000000D+00  0.00000000D+00  0.00000000D+00  0.00000000D+00  0.00000000D+00
  0.00000000D+00  0.00000000D+00  0.00000000D+00  0.00000000D+00  0.00000000D+00
  0.00000000D+00  0.00000000D+00  0.00000000D+00  0.00000000D+00  0.00000000D+00
  0.00000000D+00  0.00000000D+00  0.00000000D+00  0.00000000D+00  0.00000000D+00
  0.00000000D+00  0.00000000D+00  0.00000000D+00  0.00000000D+00  0.00000000D+00
  0.00000000D+00  0.00000000D+00  0.00000000D+00  0.00000000D+00  0.00000000D+00
  0.00000000D+00  0.00000000D+00  0.00000000D+00  0.00000000D+00  0.00000000D+00
  0.00000000D+00  0.00000000D+00  0.00000000D+00  0.00000000D+00  0.00000000D+00
  0.00000000D+00  0.00000000D+00  0.00000000D+00  0.00000000D+00  0.00000000D+00
  0.00000000D+00  0.00000000D+00  0.00000000D+00  0.00000000D+00 -0.14540798D-15
  0.00000000D+00  0.00000000D+00 -0.12238067D-14  0.00000000D+00  0.00000000D+00
  0.16600306D-14  0.00000000D+00  0.00000000D+00  0.00000000D+00 -0.13274785D-15
  0.00000000D+00  0.00000000D+00 -0.37598396D-15  0.00000000D+00  0.00000000D+00
  0.77422751D-15  0.00000000D+00  0.00000000D+00  0.00000000D+00 -0.15451675D-16
  0.00000000D+00  0.00000000D+00 -0.25296922D-16  0.00000000D+00  0.00000000D+00
  0.71651948D-16  0.00000000D+00  0.00000000D+00  0.00000000D+00 -0.33044826D-14
  0.00000000D+00  0.00000000D+00  0.41111626D-14  0.00000000D+00  0.00000000D+00
  0.58022851D-14  0.00000000D+00  0.00000000D+00  0.00000000D+00 -0.32974162D-13
  0.00000000D+00  0.00000000D+00 -0.17450614D-12  0.00000000D+00  0.00000000D+00
  0.27342863D-12  0.00000000D+00  0.00000000D+00  0.00000000D+00 -0.80512561D-19
  0.00000000D+00  0.00000000D+00  0.77853151D-18  0.00000000D+00  0.00000000D+00
 -0.53699383D-18  0.00000000D+00  0.00000000D+00  0.00000000D+00  0.00000000D+00
  0.00000000D+00  0.00000000D+00  0.00000000D+00  0.00000000D+00  0.00000000D+00
  0.00000000D+00  0.00000000D+00  0.00000000D+00  0.00000000D+00  0.00000000D+00
  0.00000000D+00  0.00000000D+00  0.00000000D+00  0.00000000D+00  0.00000000D+00
  0.00000000D+00  0.00000000D+00  0.00000000D+00  0.00000000D+00  0.00000000D+00
  0.00000000D+00  0.00000000D+00  0.00000000D+00  0.00000000D+00  0.00000000D+00
  0.00000000D+00  0.00000000D+00  0.00000000D+00  0.00000000D+00  0.00000000D+00
  0.00000000D+00  0.00000000D+00  0.00000000D+00  0.00000000D+00  0.00000000D+00
  0.00000000D+00  0.00000000D+00  0.00000000D+00  0.00000000D+00  0.00000000D+00
  0.00000000D+00  0.00000000D+00  0.00000000D+00  0.00000000D+00  0.00000000D+00
  0.00000000D+00  0.00000000D+00  0.00000000D+00  0.00000000D+00  0.00000000D+00
  0.00000000D+00  0.00000000D+00  0.00000000D+00  0.00000000D+00  0.00000000D+00
  0.00000000D+00  0.00000000D+00  0.56730897D-16  0.00000000D+00 -0.36052816D-15
  0.00000000D+00  0.43269664D-16  0.00000000D+00  0.00000000D+00  0.00000000D+00
  0.00000000D+00  0.00000000D+00  0.00000000D+00 -0.20678080D-15  0.00000000D+00
  0.82196651D-15  0.00000000D+00  0.00000000D+00  0.00000000D+00  0.00000000D+00
 -0.33604016D-16  0.00000000D+00  0.00000000D+00  0.20596719D-17  0.00000000D+00
 -0.10123398D-16  0.00000000D+00  0.86742579D-17  0.00000000D+00  0.00000000D+00
  0.00000000D+00  0.00000000D+00  0.00000000D+00  0.00000000D+00 -0.10473321D-16
  0.00000000D+00 -0.21675352D-16  0.00000000D+00  0.00000000D+00  0.00000000D+00
  0.00000000D+00  0.88492191D-17  0.00000000D+00  0.00000000D+00
MO    4     MO 0.0        OCC NO =    0.0500111  ORB. ENERGY =    0.000000
  0.00000000D+00  0.00000000D+00  0.00000000D+00  0.00000000D+00  0.00000000D+00
  0.00000000D+00  0.00000000D+00  0.00000000D+00  0.00000000D+00  0.00000000D+00
  0.00000000D+00  0.00000000D+00  0.00000000D+00  0.00000000D+00  0.00000000D+00
  0.00000000D+00  0.00000000D+00  0.00000000D+00  0.00000000D+00  0.00000000D+00
  0.00000000D+00  0.00000000D+00  0.00000000D+00  0.00000000D+00  0.00000000D+00
  0.20361389D+00  0.25676561D+00  0.26464145D+00  0.24098927D+00  0.00000000D+00
  0.00000000D+00  0.00000000D+00  0.00000000D+00  0.00000000D+00  0.00000000D+00
  0.00000000D+00  0.00000000D+00  0.31838484D+00  0.00000000D+00  0.00000000D+00
  0.16414973D+00  0.00000000D+00  0.00000000D+00  0.14105807D-01  0.00000000D+00
  0.00000000D+00 -0.11483285D-03  0.00000000D+00  0.00000000D+00  0.48120108D-01
  0.00000000D+00  0.00000000D+00  0.65265134D-01  0.00000000D+00  0.00000000D+00
  0.72077534D-01  0.00000000D+00  0.00000000D+00  0.42333554D-01  0.00000000D+00
  0.00000000D+00  0.63729122D-05  0.00000000D+00  0.00000000D+00  0.00000000D+00
  0.00000000D+00  0.00000000D+00  0.00000000D+00  0.00000000D+00  0.00000000D+00
  0.00000000D+00  0.00000000D+00  0.00000000D+00  0.00000000D+00  0.00000000D+00
  0.00000000D+00  0.00000000D+00  0.00000000D+00  0.00000000D+00  0.00000000D+00
  0.00000000D+00  0.00000000D+00  0.00000000D+00  0.00000000D+00  0.00000000D+00
  0.00000000D+00  0.00000000D+00  0.00000000D+00  0.00000000D+00  0.00000000D+00
  0.00000000D+00  0.00000000D+00  0.00000000D+00  0.00000000D+00  0.00000000D+00
  0.00000000D+00  0.00000000D+00  0.00000000D+00  0.00000000D+00  0.00000000D+00
  0.00000000D+00  0.00000000D+00  0.00000000D+00  0.00000000D+00  0.00000000D+00
  0.00000000D+00  0.00000000D+00  0.00000000D+00  0.00000000D+00  0.00000000D+00
  0.00000000D+00  0.00000000D+00 -0.41392888D-15  0.00000000D+00  0.00000000D+00
  0.76705413D-15  0.00000000D+00  0.00000000D+00  0.47473251D-15  0.00000000D+00
  0.00000000D+00  0.00000000D+00 -0.21984202D-15  0.00000000D+00  0.00000000D+00
  0.65301973D-15  0.00000000D+00  0.00000000D+00  0.65063437D-17  0.00000000D+00
  0.00000000D+00  0.00000000D+00 -0.69641441D-17  0.00000000D+00  0.00000000D+00
  0.66447201D-16  0.00000000D+00  0.00000000D+00 -0.45554768D-16  0.00000000D+00
  0.00000000D+00  0.00000000D+00 -0.16822779D-13  0.00000000D+00  0.00000000D+00
  0.51443287D-13  0.00000000D+00  0.00000000D+00 -0.97495018D-15  0.00000000D+00
  0.00000000D+00  0.00000000D+00  0.20644455D-12  0.00000000D+00  0.00000000D+00
 -0.84963472D-12  0.00000000D+00  0.00000000D+00  0.23030107D-12  0.00000000D+00
  0.00000000D+00  0.00000000D+00  0.17110543D-18  0.00000000D+00  0.00000000D+00
 -0.10369625D-17  0.00000000D+00  0.00000000D+00  0.52364622D-18  0.00000000D+00
  0.00000000D+00  0.00000000D+00  0.00000000D+00  0.00000000D+00  0.00000000D+00
  0.00000000D+00  0.00000000D+00  0.00000000D+00  0.00000000D+00  0.00000000D+00
  0.00000000D+00  0.00000000D+00  0.00000000D+00  0.00000000D+00  0.00000000D+00
  0.00000000D+00  0.00000000D+00  0.00000000D+00  0.00000000D+00  0.00000000D+00
  0.00000000D+00  0.00000000D+00  0.00000000D+00  0.00000000D+00  0.00000000D+00
  0.00000000D+00  0.00000000D+00  0.00000000D+00  0.00000000D+00  0.00000000D+00
  0.00000000D+00  0.00000000D+00  0.00000000D+00  0.00000000D+00  0.00000000D+00
  0.00000000D+00  0.00000000D+00  0.00000000D+00  0.00000000D+00  0.00000000D+00
  0.00000000D+00  0.00000000D+00  0.00000000D+00  0.00000000D+00  0.00000000D+00
  0.00000000D+00  0.00000000D+00  0.00000000D+00  0.00000000D+00  0.00000000D+00
  0.00000000D+00  0.00000000D+00  0.00000000D+00  0.00000000D+00  0.00000000D+00
  0.00000000D+00  0.00000000D+00  0.00000000D+00  0.00000000D+00  0.00000000D+00
  0.00000000D+00  0.00000000D+00  0.00000000D+00  0.00000000D+00  0.00000000D+00
  0.00000000D+00  0.00000000D+00  0.00000000D+00  0.39227853D-16  0.00000000D+00
  0.38488199D-16  0.00000000D+00 -0.15981625D-16  0.00000000D+00  0.00000000D+00
  0.00000000D+00  0.00000000D+00 -0.91285105D-16  0.00000000D+00  0.19133851D-16
  0.00000000D+00  0.00000000D+00  0.72151255D-17  0.00000000D+00  0.00000000D+00
  0.00000000D+00  0.00000000D+00  0.00000000D+00  0.00000000D+00 -0.51708284D-17
  0.00000000D+00 -0.94620952D-17  0.00000000D+00 -0.15171511D-17  0.00000000D+00
  0.00000000D+00  0.00000000D+00  0.00000000D+00  0.13495688D-16  0.00000000D+00
  0.61883339D-17  0.00000000D+00  0.00000000D+00 -0.19684022D-17
MO    5     MO 0.0        OCC NO =    0.0500111  ORB. ENERGY =    0.000000
  0.00000000D+00  0.00000000D+00  0.00000000D+00  0.00000000D+00  0.00000000D+00
  0.00000000D+00  0.00000000D+00  0.00000000D+00  0.00000000D+00  0.00000000D+00
  0.00000000D+00  0.00000000D+00  0.00000000D+00  0.00000000D+00  0.00000000D+00
  0.00000000D+00  0.00000000D+00  0.00000000D+00  0.00000000D+00  0.00000000D+00
  0.00000000D+00  0.00000000D+00  0.00000000D+00  0.00000000D+00  0.00000000D+00
  0.00000000D+00  0.00000000D+00  0.00000000D+00  0.00000000D+00  0.20361389D+00
  0.25676561D+00  0.26464145D+00  0.24098927D+00  0.00000000D+00  0.00000000D+00
  0.00000000D+00  0.00000000D+00  0.00000000D+00  0.31838484D+00  0.00000000D+00
  0.00000000D+00  0.16414973D+00  0.00000000D+00  0.00000000D+00  0.14105807D-01
  0.00000000D+00  0.00000000D+00 -0.11483285D-03  0.00000000D+00  0.00000000D+00
  0.48120108D-01  0.00000000D+00  0.00000000D+00  0.65265134D-01  0.00000000D+00
  0.00000000D+00  0.72077534D-01  0.00000000D+00  0.00000000D+00  0.42333554D-01
  0.00000000D+00  0.00000000D+00  0.63729122D-05  0.00000000D+00  0.00000000D+00
  0.00000000D+00  0.00000000D+00  0.00000000D+00  0.00000000D+00  0.00000000D+00
  0.00000000D+00  0.00000000D+00  0.00000000D+00  0.00000000D+00  0.00000000D+00
  0.00000000D+00  0.00000000D+00  0.00000000D+00  0.00000000D+00  0.00000000D+00
  0.00000000D+00  0.00000000D+00  0.00000000D+00  0.00000000D+00  0.00000000D+00
  0.00000000D+00  0.00000000D+00  0.00000000D+00  0.00000000D+00  0.00000000D+00
  0.00000000D+00  0.00000000D+00  0.00000000D+00  0.00000000D+00  0.00000000D+00
  0.00000000D+00  0.00000000D+00  0.00000000D+00  0.00000000D+00  0.00000000D+00
  0.00000000D+00  0.00000000D+00  0.00000000D+00  0.00000000D+00  0.00000000D+00
  0.00000000D+00  0.00000000D+00  0.00000000D+00  0.00000000D+00  0.00000000D+00
  0.00000000D+00  0.00000000D+00  0.00000000D+00 -0.17615439D-15  0.00000000D+00
  0.00000000D+00  0.34311334D-16  0.00000000D+00  0.00000000D+00  0.49415183D-15
  0.00000000D+00  0.00000000D+00  0.00000000D+00  0.78227308D-15  0.00000000D+00
  0.00000000D+00 -0.13751336D-14  0.00000000D+00  0.00000000D+00 -0.97168569D-15
  0.00000000D+00  0.00000000D+00  0.00000000D+00  0.78413529D-17  0.00000000D+00
  0.00000000D+00  0.22215978D-16  0.00000000D+00  0.00000000D+00 -0.45740037D-16
  0.00000000D+00  0.00000000D+00  0.00000000D+00  0.72517176D-14  0.00000000D+00
  0.00000000D+00 -0.77125616D-14  0.00000000D+00  0.00000000D+00 -0.14042591D-13
  0.00000000D+00  0.00000000D+00  0.00000000D+00  0.93656332D-13  0.00000000D+00
  0.00000000D+00 -0.44024964D-12  0.00000000D+00  0.00000000D+00  0.15928065D-12
  0.00000000D+00  0.00000000D+00  0.00000000D+00  0.22293908D-17  0.00000000D+00
  0.00000000D+00 -0.25604352D-17  0.00000000D+00  0.00000000D+00 -0.41277370D-17
  0.00000000D+00  0.00000000D+00  0.00000000D+00  0.00000000D+00  0.00000000D+00
  0.00000000D+00  0.00000000D+00  0.00000000D+00  0.00000000D+00  0.00000000D+00
  0.00000000D+00  0.00000000D+00  0.00000000D+00  0.00000000D+00  0.00000000D+00
  0.00000000D+00  0.00000000D+00  0.00000000D+00  0.00000000D+00  0.00000000D+00
  0.00000000D+00  0.00000000D+00  0.00000000D+00  0.00000000D+00  0.00000000D+00
  0.00000000D+00  0.00000000D+00  0.00000000D+00  0.00000000D+00  0.00000000D+00
  0.00000000D+00  0.00000000D+00  0.00000000D+00  0.00000000D+00  0.00000000D+00
  0.00000000D+00  0.00000000D+00  0.00000000D+00  0.00000000D+00  0.00000000D+00
  0.00000000D+00  0.00000000D+00  0.00000000D+00  0.00000000D+00  0.00000000D+00
  0.00000000D+00  0.00000000D+00  0.00000000D+00  0.00000000D+00  0.00000000D+00
  0.00000000D+00  0.00000000D+00  0.00000000D+00  0.00000000D+00  0.00000000D+00
  0.00000000D+00  0.00000000D+00  0.00000000D+00  0.00000000D+00  0.00000000D+00
  0.00000000D+00  0.00000000D+00  0.00000000D+00 -0.22883788D-15  0.00000000D+00
  0.26349647D-15  0.00000000D+00 -0.16219123D-16  0.00000000D+00  0.00000000D+00
  0.00000000D+00  0.00000000D+00  0.00000000D+00  0.00000000D+00  0.58253788D-15
  0.00000000D+00 -0.10130524D-15  0.00000000D+00  0.00000000D+00  0.00000000D+00
  0.00000000D+00 -0.46437027D-16  0.00000000D+00  0.00000000D+00  0.35420055D-18
  0.00000000D+00  0.94226827D-18  0.00000000D+00  0.26151348D-17  0.00000000D+00
  0.00000000D+00  0.00000000D+00  0.00000000D+00  0.00000000D+00  0.00000000D+00
 -0.49520081D-17  0.00000000D+00 -0.27093616D-16  0.00000000D+00  0.00000000D+00
  0.00000000D+00  0.00000000D+00  0.14372143D-16  0.00000000D+00
MO    6     MO 0.0        OCC NO =    0.0016501  ORB. ENERGY =    0.000000
  0.58781656D-01  0.11281337D+00  0.19332060D+00  0.31285777D+00  0.48098891D+00
  0.67261781D+00  0.84406010D+00  0.82963632D+00  0.55380795D+00 -0.29643418D-03
 -0.10530012D-03  0.48243182D-02  0.12442759D-01  0.41288938D-01  0.76559867D-01
  0.12843369D+00 -0.41688177D+00 -0.43113620D+00  0.21448407D+00  0.20649493D-01
 -0.49437580D+00  0.72466709D+00  0.46755339D+00  0.25347043D+00 -0.75980054D-04
  0.00000000D+00  0.00000000D+00  0.00000000D+00  0.00000000D+00  0.00000000D+00