 Title Card Required
GAUSSIAN             75 MOL ORBITALS    274 PRIMITIVES        1 NUCLEI
  B    1    (CENTRE  1)   0.00000000  0.00000000  0.00000000  CHARGE =  5.0
CENTRE ASSIGNMENTS    1  1  1  1  1  1  1  1  1  1  1  1  1  1  1  1  1  1  1  1
CENTRE ASSIGNMENTS    1  1  1  1  1  1  1  1  1  1  1  1  1  1  1  1  1  1  1  1
CENTRE ASSIGNMENTS    1  1  1  1  1  1  1  1  1  1  1  1  1  1  1  1  1  1  1  1
CENTRE ASSIGNMENTS    1  1  1  1  1  1  1  1  1  1  1  1  1  1  1  1  1  1  1  1
CENTRE ASSIGNMENTS    1  1  1  1  1  1  1  1  1  1  1  1  1  1  1  1  1  1  1  1
CENTRE ASSIGNMENTS    1  1  1  1  1  1  1  1  1  1  1  1  1  1  1  1  1  1  1  1
CENTRE ASSIGNMENTS    1  1  1  1  1  1  1  1  1  1  1  1  1  1  1  1  1  1  1  1
CENTRE ASSIGNMENTS    1  1  1  1  1  1  1  1  1  1  1  1  1  1  1  1  1  1  1  1
CENTRE ASSIGNMENTS    1  1  1  1  1  1  1  1  1  1  1  1  1  1  1  1  1  1  1  1
CENTRE ASSIGNMENTS    1  1  1  1  1  1  1  1  1  1  1  1  1  1  1  1  1  1  1  1
CENTRE ASSIGNMENTS    1  1  1  1  1  1  1  1  1  1  1  1  1  1  1  1  1  1  1  1
CENTRE ASSIGNMENTS    1  1  1  1  1  1  1  1  1  1  1  1  1  1  1  1  1  1  1  1
CENTRE ASSIGNMENTS    1  1  1  1  1  1  1  1  1  1  1  1  1  1  1  1  1  1  1  1
CENTRE ASSIGNMENTS    1  1  1  1  1  1  1  1  1  1  1  1  1  1
TYPE ASSIGNMENTS      1  1  1  1  1  1  1  1  1  1  1  1  1  1  1  1  1  1  1  1
TYPE ASSIGNMENTS      1  1  1  1  1  2  2  2  2  3  3  3  3  4  4  4  4  2  3  4
TYPE ASSIGNMENTS      2  3  4  2  3  4  2  3  4  2  3  4  2  3  4  2  3  4  2  3
TYPE ASSIGNMENTS      4  2  3  4  5  6  7  8  9 10  5  6  7  8  9 10  5  6  7  8
TYPE ASSIGNMENTS      9 10  5  6  7  8  9 10  5  6  7  8  9 10  5  6  7  8  9 10
TYPE ASSIGNMENTS      5  6  7  8  9 10  5  6  7  8  9 10 11 12 13 17 14 15 18 19
TYPE ASSIGNMENTS     16 20 11 12 13 17 14 15 18 19 16 20 11 12 13 17 14 15 18 19
TYPE ASSIGNMENTS     16 20 11 12 13 17 14 15 18 19 16 20 11 12 13 17 14 15 18 19
TYPE ASSIGNMENTS     16 20 11 12 13 17 14 15 18 19 16 20 23 29 32 27 22 28 35 34
TYPE ASSIGNMENTS     26 31 33 30 25 24 21 23 29 32 27 22 28 35 34 26 31 33 30 25
TYPE ASSIGNMENTS     24 21 23 29 32 27 22 28 35 34 26 31 33 30 25 24 21 23 29 32
TYPE ASSIGNMENTS     27 22 28 35 34 26 31 33 30 25 24 21 36 37 38 39 40 41 42 43
TYPE ASSIGNMENTS     44 45 46 47 48 49 50 51 52 53 54 55 56 36 37 38 39 40 41 42
TYPE ASSIGNMENTS     43 44 45 46 47 48 49 50 51 52 53 54 55 56
EXPONENTS  0.6826000D+05 0.1023000D+05 0.2328000D+04 0.6604000D+03 0.2162000D+03
EXPONENTS  0.7860000D+02 0.3098000D+02 0.1296000D+02 0.5659000D+01 0.2328000D+04
EXPONENTS  0.2162000D+03 0.7860000D+02 0.3098000D+02 0.1296000D+02 0.5659000D+01
EXPONENTS  0.2556000D+01 0.1175000D+01 0.4249000D+00 0.1712000D+00 0.6913000D-01
EXPONENTS  0.5814000D+01 0.1289400D+02 0.2859500D+02 0.6341900D+02 0.2610000D-01
EXPONENTS  0.6644000D+02 0.1571000D+02 0.4936000D+01 0.1770000D+01 0.6644000D+02
EXPONENTS  0.1571000D+02 0.4936000D+01 0.1770000D+01 0.6644000D+02 0.1571000D+02
EXPONENTS  0.4936000D+01 0.1770000D+01 0.7008000D+00 0.7008000D+00 0.7008000D+00
EXPONENTS  0.2901000D+00 0.2901000D+00 0.2901000D+00 0.1211000D+00 0.1211000D+00
EXPONENTS  0.1211000D+00 0.4973000D-01 0.4973000D-01 0.4973000D-01 0.3974000D+01
EXPONENTS  0.3974000D+01 0.3974000D+01 0.1027200D+02 0.1027200D+02 0.1027200D+02
EXPONENTS  0.2654800D+02 0.2654800D+02 0.2654800D+02 0.6861300D+02 0.6861300D+02
EXPONENTS  0.6861300D+02 0.1570000D-01 0.1570000D-01 0.1570000D-01 0.2010000D+01
EXPONENTS  0.2010000D+01 0.2010000D+01 0.2010000D+01 0.2010000D+01 0.2010000D+01
EXPONENTS  0.7960000D+00 0.7960000D+00 0.7960000D+00 0.7960000D+00 0.7960000D+00
EXPONENTS  0.7960000D+00 0.3160000D+00 0.3160000D+00 0.3160000D+00 0.3160000D+00
EXPONENTS  0.3160000D+00 0.3160000D+00 0.1250000D+00 0.1250000D+00 0.1250000D+00
EXPONENTS  0.1250000D+00 0.1250000D+00 0.1250000D+00 0.4955000D+01 0.4955000D+01
EXPONENTS  0.4955000D+01 0.4955000D+01 0.4955000D+01 0.4955000D+01 0.1467100D+02
EXPONENTS  0.1467100D+02 0.1467100D+02 0.1467100D+02 0.1467100D+02 0.1467100D+02
EXPONENTS  0.4343700D+02 0.4343700D+02 0.4343700D+02 0.4343700D+02 0.4343700D+02
EXPONENTS  0.4343700D+02 0.4310000D-01 0.4310000D-01 0.4310000D-01 0.4310000D-01
EXPONENTS  0.4310000D-01 0.4310000D-01 0.1215000D+01 0.1215000D+01 0.1215000D+01
EXPONENTS  0.1215000D+01 0.1215000D+01 0.1215000D+01 0.1215000D+01 0.1215000D+01
EXPONENTS  0.1215000D+01 0.1215000D+01 0.5250000D+00 0.5250000D+00 0.5250000D+00
EXPONENTS  0.5250000D+00 0.5250000D+00 0.5250000D+00 0.5250000D+00 0.5250000D+00
EXPONENTS  0.5250000D+00 0.5250000D+00 0.2270000D+00 0.2270000D+00 0.2270000D+00
EXPONENTS  0.2270000D+00 0.2270000D+00 0.2270000D+00 0.2270000D+00 0.2270000D+00
EXPONENTS  0.2270000D+00 0.2270000D+00 0.4292000D+01 0.4292000D+01 0.4292000D+01
EXPONENTS  0.4292000D+01 0.4292000D+01 0.4292000D+01 0.4292000D+01 0.4292000D+01
EXPONENTS  0.4292000D+01 0.4292000D+01 0.2045000D+02 0.2045000D+02 0.2045000D+02
EXPONENTS  0.2045000D+02 0.2045000D+02 0.2045000D+02 0.2045000D+02 0.2045000D+02
EXPONENTS  0.2045000D+02 0.2045000D+02 0.8430000D-01 0.8430000D-01 0.8430000D-01
EXPONENTS  0.8430000D-01 0.8430000D-01 0.8430000D-01 0.8430000D-01 0.8430000D-01
EXPONENTS  0.8430000D-01 0.8430000D-01 0.1124000D+01 0.1124000D+01 0.1124000D+01
EXPONENTS  0.1124000D+01 0.1124000D+01 0.1124000D+01 0.1124000D+01 0.1124000D+01
EXPONENTS  0.1124000D+01 0.1124000D+01 0.1124000D+01 0.1124000D+01 0.1124000D+01
EXPONENTS  0.1124000D+01 0.1124000D+01 0.4610000D+00 0.4610000D+00 0.4610000D+00
EXPONENTS  0.4610000D+00 0.4610000D+00 0.4610000D+00 0.4610000D+00 0.4610000D+00
EXPONENTS  0.4610000D+00 0.4610000D+00 0.4610000D+00 0.4610000D+00 0.4610000D+00
EXPONENTS  0.4610000D+00 0.4610000D+00 0.4388000D+01 0.4388000D+01 0.4388000D+01
EXPONENTS  0.4388000D+01 0.4388000D+01 0.4388000D+01 0.4388000D+01 0.4388000D+01
EXPONENTS  0.4388000D+01 0.4388000D+01 0.4388000D+01 0.4388000D+01 0.4388000D+01
EXPONENTS  0.4388000D+01 0.4388000D+01 0.2020000D+00 0.2020000D+00 0.2020000D+00
EXPONENTS  0.2020000D+00 0.2020000D+00 0.2020000D+00 0.2020000D+00 0.2020000D+00
EXPONENTS  0.2020000D+00 0.2020000D+00 0.2020000D+00 0.2020000D+00 0.2020000D+00
EXPONENTS  0.2020000D+00 0.2020000D+00 0.8340000D+00 0.8340000D+00 0.8340000D+00
EXPONENTS  0.8340000D+00 0.8340000D+00 0.8340000D+00 0.8340000D+00 0.8340000D+00
EXPONENTS  0.8340000D+00 0.8340000D+00 0.8340000D+00 0.8340000D+00 0.8340000D+00
EXPONENTS  0.8340000D+00 0.8340000D+00 0.8340000D+00 0.8340000D+00 0.8340000D+00
EXPONENTS  0.8340000D+00 0.8340000D+00 0.8340000D+00 0.3840000D+00 0.3840000D+00
EXPONENTS  0.3840000D+00 0.3840000D+00 0.3840000D+00 0.3840000D+00 0.3840000D+00
EXPONENTS  0.3840000D+00 0.3840000D+00 0.3840000D+00 0.3840000D+00 0.3840000D+00
EXPONENTS  0.3840000D+00 0.3840000D+00 0.3840000D+00 0.3840000D+00 0.3840000D+00
EXPONENTS  0.3840000D+00 0.3840000D+00 0.3840000D+00 0.3840000D+00
MO    1     MO 0.0        OCC NO =    1.9977602  ORB. ENERGY =    0.000000
  0.70959088D-01  0.13618422D+00  0.23336964D+00  0.37767058D+00  0.58063242D+00
  0.81195989D+00  0.10189188D+01  0.10015070D+01  0.66853693D+00 -0.10086606D-02
 -0.35829905D-03  0.16415447D-01  0.42338304D-01  0.14049164D+00  0.26050613D+00
  0.43701438D+00  0.67471272D-01  0.26736988D-03  0.43995579D-04 -0.12026127D-04
 -0.22496397D-02  0.17036538D-02  0.97631928D-03  0.12973696D-02  0.16146681D-05
  0.00000000D+00  0.00000000D+00  0.00000000D+00  0.00000000D+00  0.00000000D+00
  0.00000000D+00  0.00000000D+00  0.00000000D+00  0.00000000D+00  0.00000000D+00
  0.00000000D+00  0.00000000D+00  0.00000000D+00  0.00000000D+00  0.00000000D+00
  0.00000000D+00  0.00000000D+00  0.00000000D+00  0.00000000D+00  0.00000000D+00
  0.00000000D+00  0.00000000D+00  0.00000000D+00  0.00000000D+00  0.00000000D+00
  0.00000000D+00  0.00000000D+00  0.00000000D+00  0.00000000D+00  0.00000000D+00
  0.00000000D+00  0.00000000D+00  0.00000000D+00  0.00000000D+00  0.00000000D+00
  0.00000000D+00  0.00000000D+00  0.00000000D+00  0.00000000D+00 -0.34713994D-14
  0.64514819D-14 -0.29800826D-14  0.74408676D-31  0.15742213D-31  0.10054106D-14
  0.19292902D-15 -0.66269153D-15  0.46976250D-15  0.41505212D-32  0.27956502D-32
 -0.32566932D-15  0.18229687D-16 -0.12927701D-16 -0.53019858D-17 -0.38725635D-32
 -0.13648823D-32 -0.11638066D-16 -0.56548868D-17  0.12748715D-16 -0.70938278D-17
  0.79198893D-33  0.25390903D-33  0.28922517D-16  0.16339648D-13 -0.34200824D-13
  0.17861176D-13 -0.45839678D-30 -0.11624224D-30  0.62752963D-15 -0.10457570D-12
  0.14698270D-12 -0.42407002D-13  0.21813517D-29  0.56243036D-30  0.37564857D-13
  0.36242379D-12 -0.55129770D-12  0.18887390D-12  0.75977086D-30  0.16113533D-29
 -0.11167697D-12  0.55613981D-18 -0.22142028D-17  0.16580630D-17 -0.85555615D-34
 -0.24266811D-34 -0.43027577D-17  0.00000000D+00  0.00000000D+00  0.00000000D+00
  0.00000000D+00  0.00000000D+00  0.00000000D+00  0.00000000D+00  0.00000000D+00
  0.00000000D+00  0.00000000D+00  0.00000000D+00  0.00000000D+00  0.00000000D+00
  0.00000000D+00  0.00000000D+00  0.00000000D+00  0.00000000D+00  0.00000000D+00
  0.00000000D+00  0.00000000D+00  0.00000000D+00  0.00000000D+00  0.00000000D+00
  0.00000000D+00  0.00000000D+00  0.00000000D+00  0.00000000D+00  0.00000000D+00
  0.00000000D+00  0.00000000D+00  0.00000000D+00  0.00000000D+00  0.00000000D+00
  0.00000000D+00  0.00000000D+00  0.00000000D+00  0.00000000D+00  0.00000000D+00
  0.00000000D+00  0.00000000D+00  0.00000000D+00  0.00000000D+00  0.00000000D+00
  0.00000000D+00  0.00000000D+00  0.00000000D+00  0.00000000D+00  0.00000000D+00
  0.00000000D+00  0.00000000D+00  0.00000000D+00  0.00000000D+00  0.00000000D+00
  0.00000000D+00  0.00000000D+00  0.00000000D+00  0.00000000D+00  0.00000000D+00
  0.00000000D+00  0.00000000D+00  0.10389002D-14 -0.35220325D-15 -0.77022505D-15
  0.11758904D-15  0.20504811D-15 -0.13548073D-31  0.58951444D-31  0.20584567D-31
  0.71370636D-31 -0.54631763D-14  0.70384264D-15 -0.46006360D-15  0.66865510D-32
 -0.91021117D-31  0.98720665D-15 -0.60841823D-16  0.44927852D-16 -0.19827433D-16
 -0.14999796D-16  0.18519200D-16  0.16492031D-32 -0.56925523D-32 -0.19535662D-32
 -0.70155153D-32  0.38487837D-15 -0.89784166D-16 -0.91287769D-16 -0.99801440D-33
  0.89130327D-32 -0.48931767D-16 -0.11400182D-13  0.43344804D-14 -0.78344791D-14
 -0.14471656D-14  0.11460711D-13 -0.19553811D-30 -0.50140082D-30 -0.16516237D-30
  0.17655107D-29  0.76235568D-13 -0.86619444D-14 -0.60929790D-13  0.25059223D-30
 -0.15983771D-29 -0.25509631D-14  0.12183261D-16 -0.30419079D-17 -0.23231545D-16
  0.10155775D-17  0.54909255D-17  0.14107023D-33  0.41064864D-33  0.13566577D-33
 -0.13119599D-32 -0.49868022D-16  0.60789912D-17 -0.97140081D-17 -0.18629216D-33
  0.11750770D-32  0.99303384D-17  0.00000000D+00  0.00000000D+00  0.00000000D+00
  0.00000000D+00  0.00000000D+00  0.00000000D+00  0.00000000D+00  0.00000000D+00
  0.00000000D+00  0.00000000D+00  0.00000000D+00  0.00000000D+00  0.00000000D+00
  0.00000000D+00  0.00000000D+00  0.00000000D+00  0.00000000D+00  0.00000000D+00
  0.00000000D+00  0.00000000D+00  0.00000000D+00  0.00000000D+00  0.00000000D+00
  0.00000000D+00  0.00000000D+00  0.00000000D+00  0.00000000D+00  0.00000000D+00
  0.00000000D+00  0.00000000D+00  0.00000000D+00  0.00000000D+00  0.00000000D+00
  0.00000000D+00  0.00000000D+00  0.00000000D+00  0.00000000D+00  0.00000000D+00
  0.00000000D+00  0.00000000D+00  0.00000000D+00  0.00000000D+00
MO    2     MO 0.0        OCC NO =    0.0008412  ORB. ENERGY =    0.000000
  0.11550125D+00  0.22166925D+00  0.37985952D+00  0.61474048D+00  0.94510473D+00
  0.13216402D+01  0.16585106D+01  0.16301690D+01  0.10881883D+01  0.24391333D-02
  0.86643528D-03 -0.39695675D-01 -0.10238208D+00 -0.33973553D+00 -0.62995340D+00
 -0.10567839D+01 -0.20661372D+00 -0.17854218D-02  0.15235337D-03 -0.31835721D-04
 -0.56497194D+00  0.17948986D+01  0.14768566D+01  0.62797562D+00  0.41454673D-05
  0.00000000D+00  0.00000000D+00  0.00000000D+00  0.00000000D+00  0.00000000D+00
  0.00000000D+00  0.00000000D+00  0.00000000D+00  0.00000000D+00  0.00000000D+00
  0.00000000D+00  0.00000000D+00  0.00000000D+00  0.00000000D+00  0.00000000D+00
  0.00000000D+00  0.00000000D+00  0.00000000D+00  0.00000000D+00  0.00000000D+00
  0.00000000D+00  0.00000000D+00  0.00000000D+00  0.00000000D+00  0.00000000D+00
  0.00000000D+00  0.00000000D+00  0.00000000D+00  0.00000000D+00  0.00000000D+00
  0.00000000D+00  0.00000000D+00  0.00000000D+00  0.00000000D+00  0.00000000D+00
  0.00000000D+00  0.00000000D+00  0.00000000D+00  0.00000000D+00  0.89348891D-13
 -0.31127500D-13 -0.58221391D-13 -0.11999730D-31 -0.25383822D-32 -0.54036452D-14
 -0.18438720D-13  0.87100797D-14  0.97286401D-14 -0.66961927D-33 -0.45099289D-33
  0.18057903D-14  0.26495546D-14 -0.10568925D-14 -0.15926621D-14  0.62460217D-33
  0.22014348D-33  0.11078500D-15 -0.24683400D-15  0.11610584D-15  0.13072816D-15
 -0.12773659D-33 -0.40952248D-34 -0.17966506D-15 -0.42416374D-13 -0.53073698D-13
  0.95490072D-13  0.73856795D-31  0.18713922D-31  0.74657256D-14  0.12716896D-12
 -0.62616108D-13 -0.64552853D-13 -0.35296281D-30 -0.91191186D-31  0.13129718D-14
  0.30683251D-14  0.37590491D-13 -0.40658816D-13 -0.12455891D-30 -0.26076083D-30
 -0.11141252D-13  0.13626461D-16 -0.25786614D-17 -0.11047800D-16  0.13798788D-34
  0.39138767D-35  0.25271597D-16  0.00000000D+00  0.00000000D+00  0.00000000D+00
  0.00000000D+00  0.00000000D+00  0.00000000D+00  0.00000000D+00  0.00000000D+00
  0.00000000D+00  0.00000000D+00  0.00000000D+00  0.00000000D+00  0.00000000D+00
  0.00000000D+00  0.00000000D+00  0.00000000D+00  0.00000000D+00  0.00000000D+00
  0.00000000D+00  0.00000000D+00  0.00000000D+00  0.00000000D+00  0.00000000D+00
  0.00000000D+00  0.00000000D+00  0.00000000D+00  0.00000000D+00  0.00000000D+00
  0.00000000D+00  0.00000000D+00  0.00000000D+00  0.00000000D+00  0.00000000D+00
  0.00000000D+00  0.00000000D+00  0.00000000D+00  0.00000000D+00  0.00000000D+00
  0.00000000D+00  0.00000000D+00  0.00000000D+00  0.00000000D+00  0.00000000D+00
  0.00000000D+00  0.00000000D+00  0.00000000D+00  0.00000000D+00  0.00000000D+00
  0.00000000D+00  0.00000000D+00  0.00000000D+00  0.00000000D+00  0.00000000D+00
  0.00000000D+00  0.00000000D+00  0.00000000D+00  0.00000000D+00  0.00000000D+00
  0.00000000D+00  0.00000000D+00 -0.88231151D-13  0.20524358D-14  0.27404091D-12
 -0.47614174D-15 -0.91495244D-13  0.21850618D-32 -0.95078997D-32 -0.33199519D-32
 -0.11510757D-31  0.25534599D-12 -0.47288821D-14  0.27493055D-12 -0.10784112D-32
  0.14680057D-31 -0.88379423D-13  0.28580235D-13 -0.28289305D-15 -0.86476070D-13
  0.89446685D-16  0.28786178D-13 -0.26598810D-33  0.91811467D-33  0.31507793D-33
  0.11314783D-32 -0.85005342D-13  0.58033909D-15 -0.86240998D-13  0.16096212D-33
 -0.14375166D-32  0.28541057D-13  0.26071492D-11 -0.20839503D-13 -0.84217613D-11
  0.25182506D-15  0.29017637D-11  0.31540046D-31  0.80869740D-31  0.26638568D-31
 -0.28477194D-30 -0.72211339D-11  0.61763035D-13 -0.89888209D-11 -0.40419568D-31
  0.25781536D-30  0.27016591D-11 -0.20199409D-14  0.20192312D-16  0.60853478D-14
 -0.74188102D-17 -0.20274254D-14 -0.22752320D-34 -0.66230823D-34 -0.21880640D-34
  0.21159762D-33  0.60342973D-14 -0.38320504D-16  0.60792046D-14  0.30045867D-34
 -0.18952068D-33 -0.20189170D-14  0.00000000D+00  0.00000000D+00  0.00000000D+00
  0.00000000D+00  0.00000000D+00  0.00000000D+00  0.00000000D+00  0.00000000D+00
  0.00000000D+00  0.00000000D+00  0.00000000D+00  0.00000000D+00  0.00000000D+00
  0.00000000D+00  0.00000000D+00  0.00000000D+00  0.00000000D+00  0.00000000D+00
  0.00000000D+00  0.00000000D+00  0.00000000D+00  0.00000000D+00  0.00000000D+00
  0.00000000D+00  0.00000000D+00  0.00000000D+00  0.00000000D+00  0.00000000D+00
  0.00000000D+00  0.00000000D+00  0.00000000D+00  0.00000000D+00  0.00000000D+00
  0.00000000D+00  0.00000000D+00  0.00000000D+00  0.00000000D+00  0.00000000D+00
  0.00000000D+00  0.00000000D+00  0.00000000D+00  0.00000000D+00
MO    3     MO 0.0        OCC NO =    0.0004144  ORB. ENERGY =    0.000000
  0.00000000D+00  0.00000000D+00  0.00000000D+00  0.00000000D+00  0.00000000D+00
  0.00000000D+00  0.00000000D+00  0.00000000D+00  0.00000000D+00  0.00000000D+00
  0.00000000D+00  0.00000000D+00  0.00000000D+00  0.00000000D+00  0.00000000D+00
  0.00000000D+00  0.00000000D+00  0.00000000D+00  0.00000000D+00  0.00000000D+00
  0.00000000D+00  0.00000000D+00  0.00000000D+00  0.00000000D+00  0.00000000D+00
  0.63896132D-01  0.80575688D-01  0.83047206D-01  0.75624910D-01  0.00000000D+00
  0.00000000D+00  0.00000000D+00  0.00000000D+00  0.00000000D+00  0.00000000D+00
  0.00000000D+00  0.00000000D+00  0.14041659D-01  0.00000000D+00  0.00000000D+00
 -0.27339141D-02  0.00000000D+00  0.00000000D+00  0.49751384D-03  0.00000000D+00
  0.00000000D+00 -0.67718625D-04  0.00000000D+00  0.00000000D+00  0.32715154D+01
  0.00000000D+00  0.00000000D+00  0.13499241D+02  0.00000000D+00  0.00000000D+00
  0.12084581D+02  0.00000000D+00  0.00000000D+00  0.66381271D+01  0.00000000D+00
  0.00000000D+00  0.39444028D-05  0.00000000D+00  0.00000000D+00  0.00000000D+00
  0.00000000D+00  0.00000000D+00  0.00000000D+00  0.00000000D+00  0.00000000D+00
  0.00000000D+00  0.00000000D+00  0.00000000D+00  0.00000000D+00  0.00000000D+00
  0.00000000D+00  0.00000000D+00  0.00000000D+00  0.00000000D+00  0.00000000D+00
  0.00000000D+00  0.00000000D+00  0.00000000D+00  0.00000000D+00  0.00000000D+00
  0.00000000D+00  0.00000000D+00  0.00000000D+00  0.00000000D+00  0.00000000D+00
  0.00000000D+00  0.00000000D+00  0.00000000D+00  0.00000000D+00  0.00000000D+00
  0.00000000D+00  0.00000000D+00  0.00000000D+00  0.00000000D+00  0.00000000D+00
  0.00000000D+00  0.00000000D+00  0.00000000D+00  0.00000000D+00  0.00000000D+00
  0.00000000D+00  0.00000000D+00  0.00000000D+00  0.00000000D+00  0.00000000D+00
  0.00000000D+00  0.00000000D+00 -0.77484819D-13  0.00000000D+00  0.00000000D+00
  0.11695492D-12  0.00000000D+00  0.00000000D+00  0.11549954D-12  0.00000000D+00
  0.00000000D+00  0.00000000D+00 -0.34179308D-15  0.00000000D+00  0.00000000D+00
  0.35768184D-15  0.00000000D+00  0.00000000D+00  0.66769739D-15  0.00000000D+00
  0.00000000D+00  0.00000000D+00 -0.26089530D-15  0.00000000D+00  0.00000000D+00
  0.39666756D-15  0.00000000D+00  0.00000000D+00  0.38601833D-15  0.00000000D+00
  0.00000000D+00  0.00000000D+00  0.21928189D-12  0.00000000D+00  0.00000000D+00
 -0.32782082D-12  0.00000000D+00  0.00000000D+00 -0.33002486D-12  0.00000000D+00
  0.00000000D+00  0.00000000D+00 -0.13396410D-11  0.00000000D+00  0.00000000D+00
  0.16129305D-11  0.00000000D+00  0.00000000D+00  0.24059926D-11  0.00000000D+00
  0.00000000D+00  0.00000000D+00  0.38484886D-16  0.00000000D+00  0.00000000D+00
 -0.54395061D-16  0.00000000D+00  0.00000000D+00 -0.61059595D-16  0.00000000D+00
  0.00000000D+00  0.00000000D+00  0.00000000D+00  0.00000000D+00  0.00000000D+00
  0.00000000D+00  0.00000000D+00  0.00000000D+00  0.00000000D+00  0.00000000D+00
  0.00000000D+00  0.00000000D+00  0.00000000D+00  0.00000000D+00  0.00000000D+00
  0.00000000D+00  0.00000000D+00  0.00000000D+00  0.00000000D+00  0.00000000D+00
  0.00000000D+00  0.00000000D+00  0.00000000D+00  0.00000000D+00  0.00000000D+00
  0.00000000D+00  0.00000000D+00  0.00000000D+00  0.00000000D+00  0.00000000D+00
  0.00000000D+00  0.00000000D+00  0.00000000D+00  0.00000000D+00  0.00000000D+00
  0.00000000D+00  0.00000000D+00  0.00000000D+00  0.00000000D+00  0.00000000D+00
  0.00000000D+00  0.00000000D+00  0.00000000D+00  0.00000000D+00  0.00000000D+00
  0.00000000D+00  0.00000000D+00  0.00000000D+00  0.00000000D+00  0.00000000D+00
  0.00000000D+00  0.00000000D+00  0.00000000D+00  0.00000000D+00  0.00000000D+00
  0.00000000D+00  0.00000000D+00  0.00000000D+00  0.00000000D+00  0.00000000D+00
  0.00000000D+00  0.00000000D+00  0.00000000D+00  0.00000000D+00  0.00000000D+00
  0.00000000D+00  0.00000000D+00  0.00000000D+00 -0.93487728D-13  0.00000000D+00
 -0.10456891D-12  0.00000000D+00 -0.93600245D-13  0.00000000D+00  0.00000000D+00
  0.00000000D+00  0.00000000D+00  0.22183176D-12  0.00000000D+00  0.22205679D-12
  0.00000000D+00  0.00000000D+00 -0.44388855D-13  0.00000000D+00  0.00000000D+00
  0.00000000D+00  0.00000000D+00  0.00000000D+00  0.00000000D+00  0.86565449D-14
  0.00000000D+00  0.12874239D-13  0.00000000D+00  0.86427006D-14  0.00000000D+00
  0.00000000D+00  0.00000000D+00  0.00000000D+00 -0.21604503D-13  0.00000000D+00
 -0.21576814D-13  0.00000000D+00  0.00000000D+00  0.43181317D-14
MO    4     MO 0.0        OCC NO =    0.0004144  ORB. ENERGY =    0.000000
  0.00000000D+00  0.00000000D+00  0.00000000D+00  0.00000000D+00  0.00000000D+00
  0.00000000D+00  0.00000000D+00  0.00000000D+00  0.00000000D+00  0.00000000D+00
  0.00000000D+00  0.00000000D+00  0.00000000D+00  0.00000000D+00  0.00000000D+00
  0.00000000D+00  0.00000000D+00  0.00000000D+00  0.00000000D+00  0.00000000D+00
  0.00000000D+00  0.00000000D+00  0.00000000D+00  0.00000000D+00  0.00000000D+00
  0.00000000D+00  0.00000000D+00  0.00000000D+00  0.00000000D+00  0.63896132D-01
  0.80575688D-01  0.83047206D-01  0.75624910D-01  0.00000000D+00  0.00000000D+00
  0.00000000D+00  0.00000000D+00  0.00000000D+00  0.14041659D-01  0.00000000D+00
  0.00000000D+00 -0.27339141D-02  0.00000000D+00  0.00000000D+00  0.49751384D-03
  0.00000000D+00  0.00000000D+00 -0.67718625D-04  0.00000000D+00  0.00000000D+00
  0.32715154D+01  0.00000000D+00  0.00000000D+00  0.13499241D+02  0.00000000D+00
  0.00000000D+00  0.12084581D+02  0.00000000D+00  0.00000000D+00  0.66381271D+01
  0.00000000D+00  0.00000000D+00  0.39444028D-05  0.00000000D+00  0.00000000D+00
  0.00000000D+00  0.00000000D+00  0.00000000D+00  0.00000000D+00  0.00000000D+00
  0.00000000D+00  0.00000000D+00  0.00000000D+00  0.00000000D+00  0.00000000D+00
  0.00000000D+00  0.00000000D+00  0.00000000D+00  0.00000000D+00  0.00000000D+00
  0.00000000D+00  0.00000000D+00  0.00000000D+00  0.00000000D+00  0.00000000D+00
  0.00000000D+00  0.00000000D+00  0.00000000D+00  0.00000000D+00  0.00000000D+00
  0.00000000D+00  0.00000000D+00  0.00000000D+00  0.00000000D+00  0.00000000D+00
  0.00000000D+00  0.00000000D+00  0.00000000D+00  0.00000000D+00  0.00000000D+00
  0.00000000D+00  0.00000000D+00  0.00000000D+00  0.00000000D+00  0.00000000D+00
  0.00000000D+00  0.00000000D+00  0.00000000D+00  0.00000000D+00  0.00000000D+00
  0.00000000D+00  0.00000000D+00  0.00000000D+00 -0.75808114D-13  0.00000000D+00
  0.00000000D+00  0.11403055D-12  0.00000000D+00  0.00000000D+00  0.11339379D-12
  0.00000000D+00  0.00000000D+00  0.00000000D+00 -0.53211751D-15  0.00000000D+00
  0.00000000D+00  0.66673174D-15  0.00000000D+00  0.00000000D+00  0.92962079D-15
  0.00000000D+00  0.00000000D+00  0.00000000D+00 -0.26324685D-15  0.00000000D+00
  0.00000000D+00  0.43113597D-15  0.00000000D+00  0.00000000D+00  0.35860457D-15
  0.00000000D+00  0.00000000D+00  0.00000000D+00  0.17802797D-12  0.00000000D+00
  0.00000000D+00 -0.26541050D-12  0.00000000D+00  0.00000000D+00 -0.26867342D-12
  0.00000000D+00  0.00000000D+00  0.00000000D+00 -0.11552461D-11  0.00000000D+00
  0.00000000D+00  0.10702062D-11  0.00000000D+00  0.00000000D+00  0.23955321D-11
  0.00000000D+00  0.00000000D+00  0.00000000D+00  0.38598619D-16  0.00000000D+00
  0.00000000D+00 -0.57171973D-16  0.00000000D+00  0.00000000D+00 -0.58623883D-16
  0.00000000D+00  0.00000000D+00  0.00000000D+00  0.00000000D+00  0.00000000D+00
  0.00000000D+00  0.00000000D+00  0.00000000D+00  0.00000000D+00  0.00000000D+00
  0.00000000D+00  0.00000000D+00  0.00000000D+00  0.00000000D+00  0.00000000D+00
  0.00000000D+00  0.00000000D+00  0.00000000D+00  0.00000000D+00  0.00000000D+00
  0.00000000D+00  0.00000000D+00  0.00000000D+00  0.00000000D+00  0.00000000D+00
  0.00000000D+00  0.00000000D+00  0.00000000D+00  0.00000000D+00  0.00000000D+00
  0.00000000D+00  0.00000000D+00  0.00000000D+00  0.00000000D+00  0.00000000D+00
  0.00000000D+00  0.00000000D+00  0.00000000D+00  0.00000000D+00  0.00000000D+00
  0.00000000D+00  0.00000000D+00  0.00000000D+00  0.00000000D+00  0.00000000D+00
  0.00000000D+00  0.00000000D+00  0.00000000D+00  0.00000000D+00  0.00000000D+00
  0.00000000D+00  0.00000000D+00  0.00000000D+00  0.00000000D+00  0.00000000D+00
  0.00000000D+00  0.00000000D+00  0.00000000D+00  0.00000000D+00  0.00000000D+00
  0.00000000D+00  0.00000000D+00  0.00000000D+00 -0.93389185D-13  0.00000000D+00
  0.22102856D-12  0.00000000D+00 -0.44252506D-13  0.00000000D+00  0.00000000D+00
  0.00000000D+00  0.00000000D+00  0.00000000D+00  0.00000000D+00 -0.10275056D-12
  0.00000000D+00  0.22149651D-12  0.00000000D+00  0.00000000D+00  0.00000000D+00
  0.00000000D+00 -0.93623161D-13  0.00000000D+00  0.00000000D+00  0.86735563D-14
  0.00000000D+00 -0.21694814D-13  0.00000000D+00  0.43350864D-14  0.00000000D+00
  0.00000000D+00  0.00000000D+00  0.00000000D+00  0.00000000D+00  0.00000000D+00
  0.13043104D-13  0.00000000D+00 -0.21656050D-13  0.00000000D+00  0.00000000D+00
  0.00000000D+00  0.00000000D+00  0.86541742D-14  0.00000000D+00
MO    5     MO 0.0        OCC NO =    0.0004144  ORB. ENERGY =    0.000000
  0.00000000D+00  0.00000000D+00  0.00000000D+00  0.00000000D+00  0.00000000D+00
  0.00000000D+00  0.00000000D+00  0.00000000D+00  0.00000000D+00  0.00000000D+00
  0.00000000D+00  0.00000000D+00  0.00000000D+00  0.00000000D+00  0.00000000D+00
  0.00000000D+00  0.00000000D+00  0.00000000D+00  0.00000000D+00  0.00000000D+00
  0.00000000D+00  0.00000000D+00  0.00000000D+00  0.00000000D+00  0.00000000D+00
  0.00000000D+00  0.00000000D+00  0.00000000D+00  0.00000000D+00  0.00000000D+00
  0.00000000D+00  0.00000000D+00  0.00000000D+00  0.63896132D-01  0.80575688D-01
  0.83047206D-01  0.75624910D-01  0.00000000D+00  0.00000000D+00  0.14041659D-01
  0.00000000D+00  0.00000000D+00 -0.27339141D-02  0.00000000D+00  0.00000000D+00
  0.49751384D-03  0.00000000D+00  0.00000000D+00 -0.67718625D-04  0.00000000D+00
  0.00000000D+00  0.32715154D+01  0.00000000D+00  0.00000000D+00  0.13499241D+02
  0.00000000D+00  0.00000000D+00  0.12084581D+02  0.00000000D+00  0.00000000D+00
  0.66381271D+01  0.00000000D+00  0.00000000D+00  0.39444028D-05  0.00000000D+00
  0.00000000D+00  0.00000000D+00  0.00000000D+00  0.00000000D+00  0.00000000D+00
  0.00000000D+00  0.00000000D+00  0.00000000D+00  0.00000000D+00  0.00000000D+00
  0.00000000D+00  0.00000000D+00  0.00000000D+00  0.00000000D+00  0.00000000D+00
  0.00000000D+00  0.00000000D+00  0.00000000D+00  0.00000000D+00  0.00000000D+00
  0.00000000D+00  0.00000000D+00  0.00000000D+00  0.00000000D+00  0.00000000D+00
  0.00000000D+00  0.00000000D+00  0.00000000D+00  0.00000000D+00  0.00000000D+00
  0.00000000D+00  0.00000000D+00  0.00000000D+00  0.00000000D+00  0.00000000D+00
  0.00000000D+00  0.00000000D+00  0.00000000D+00  0.00000000D+00  0.00000000D+00
  0.00000000D+00  0.00000000D+00  0.00000000D+00  0.00000000D+00  0.00000000D+00
  0.00000000D+00  0.00000000D+00  0.00000000D+00  0.00000000D+00 -0.76799105D-13
  0.00000000D+00  0.00000000D+00  0.11579848D-12  0.00000000D+00  0.00000000D+00
  0.11459883D-12  0.00000000D+00  0.00000000D+00  0.00000000D+00 -0.51836130D-15
  0.00000000D+00  0.00000000D+00  0.60869735D-15  0.00000000D+00  0.00000000D+00
  0.94638654D-15  0.00000000D+00  0.00000000D+00  0.00000000D+00 -0.25845953D-15
  0.00000000D+00  0.00000000D+00  0.40423698D-15  0.00000000D+00  0.00000000D+00
  0.37114162D-15  0.00000000D+00  0.00000000D+00  0.00000000D+00  0.21694782D-12
  0.00000000D+00  0.00000000D+00 -0.32691058D-12  0.00000000D+00  0.00000000D+00
 -0.32393289D-12  0.00000000D+00  0.00000000D+00  0.00000000D+00 -0.14844810D-11
  0.00000000D+00  0.00000000D+00  0.22138894D-11  0.00000000D+00  0.00000000D+00
  0.22395536D-11  0.00000000D+00  0.00000000D+00  0.00000000D+00  0.39230665D-16
  0.00000000D+00  0.00000000D+00 -0.59764737D-16  0.00000000D+00  0.00000000D+00
 -0.57927257D-16  0.00000000D+00  0.00000000D+00  0.00000000D+00  0.00000000D+00
  0.00000000D+00  0.00000000D+00  0.00000000D+00  0.00000000D+00  0.00000000D+00
  0.00000000D+00  0.00000000D+00  0.00000000D+00  0.00000000D+00  0.00000000D+00
  0.00000000D+00  0.00000000D+00  0.00000000D+00  0.00000000D+00  0.00000000D+00
  0.00000000D+00  0.00000000D+00  0.00000000D+00  0.00000000D+00  0.00000000D+00
  0.00000000D+00  0.00000000D+00  0.00000000D+00  0.00000000D+00  0.00000000D+00
  0.00000000D+00  0.00000000D+00  0.00000000D+00  0.00000000D+00  0.00000000D+00
  0.00000000D+00  0.00000000D+00  0.00000000D+00  0.00000000D+00  0.00000000D+00
  0.00000000D+00  0.00000000D+00  0.00000000D+00  0.00000000D+00  0.00000000D+00
  0.00000000D+00  0.00000000D+00  0.00000000D+00  0.00000000D+00  0.00000000D+00
  0.00000000D+00  0.00000000D+00  0.00000000D+00  0.00000000D+00  0.00000000D+00
  0.00000000D+00  0.00000000D+00  0.00000000D+00  0.00000000D+00  0.00000000D+00
  0.00000000D+00  0.00000000D+00 -0.44340324D-13  0.00000000D+00  0.22179765D-12
  0.00000000D+00 -0.93671446D-13  0.00000000D+00  0.00000000D+00  0.00000000D+00
  0.00000000D+00  0.00000000D+00  0.00000000D+00  0.22160559D-12  0.00000000D+00
 -0.10336429D-12  0.00000000D+00  0.00000000D+00  0.00000000D+00  0.00000000D+00
 -0.93575413D-13  0.00000000D+00  0.00000000D+00  0.43267250D-14  0.00000000D+00
 -0.21638851D-13  0.00000000D+00  0.86565049D-14  0.00000000D+00  0.00000000D+00
  0.00000000D+00  0.00000000D+00  0.00000000D+00  0.00000000D+00 -0.21628399D-13
  0.00000000D+00  0.12977523D-13  0.00000000D+00  0.00000000D+00  0.00000000D+00
  0.00000000D+00  0.86512790D-14  0.00000000D+00  0.00000000D+00
MO    6     MO 0.0        OCC NO =    0.0000190  ORB. ENERGY =    0.000000
  0.21173147D+00  0.40635368D+00  0.69634065D+00  0.11269134D+01  0.17325217D+01
  0.24227688D+01  0.30403038D+01  0.29883493D+01  0.19948158D+01 -0.27697633D-02
 -0.98388251D-03  0.45076513D-01  0.11626020D+00  0.38578744D+00  0.71534499D+00
  0.12000334D+01  0.35910149D+00  0.65271414D-02 -0.13568825D-02  0.32077887D-03
 -0.67384272D+01 -0.60640473D+01  0.51685020D+01  0.37950760D+01 -0.42520535D-04
  0.00000000D+00  0.00000000D+00  0.00000000D+00  0.00000000D+00  0.00000000D+00