 Title Card Required
GAUSSIAN            178 MOL ORBITALS    276 PRIMITIVES        1 NUCLEI
  Be   1    (CENTRE  1)   0.00000000  0.00000000  0.00000000  CHARGE =  4.0
CENTRE ASSIGNMENTS    1  1  1  1  1  1  1  1  1  1  1  1  1  1  1  1  1  1  1  1
CENTRE ASSIGNMENTS    1  1  1  1  1  1  1  1  1  1  1  1  1  1  1  1  1  1  1  1
CENTRE ASSIGNMENTS    1  1  1  1  1  1  1  1  1  1  1  1  1  1  1  1  1  1  1  1
CENTRE ASSIGNMENTS    1  1  1  1  1  1  1  1  1  1  1  1  1  1  1  1  1  1  1  1
CENTRE ASSIGNMENTS    1  1  1  1  1  1  1  1  1  1  1  1  1  1  1  1  1  1  1  1
CENTRE ASSIGNMENTS    1  1  1  1  1  1  1  1  1  1  1  1  1  1  1  1  1  1  1  1
CENTRE ASSIGNMENTS    1  1  1  1  1  1  1  1  1  1  1  1  1  1  1  1  1  1  1  1
CENTRE ASSIGNMENTS    1  1  1  1  1  1  1  1  1  1  1  1  1  1  1  1  1  1  1  1
CENTRE ASSIGNMENTS    1  1  1  1  1  1  1  1  1  1  1  1  1  1  1  1  1  1  1  1
CENTRE ASSIGNMENTS    1  1  1  1  1  1  1  1  1  1  1  1  1  1  1  1  1  1  1  1
CENTRE ASSIGNMENTS    1  1  1  1  1  1  1  1  1  1  1  1  1  1  1  1  1  1  1  1
CENTRE ASSIGNMENTS    1  1  1  1  1  1  1  1  1  1  1  1  1  1  1  1  1  1  1  1
CENTRE ASSIGNMENTS    1  1  1  1  1  1  1  1  1  1  1  1  1  1  1  1  1  1  1  1
CENTRE ASSIGNMENTS    1  1  1  1  1  1  1  1  1  1  1  1  1  1  1  1
TYPE ASSIGNMENTS      1  1  1  1  1  1  1  1  1  1  1  1  1  1  1  1  1  1  1  1
TYPE ASSIGNMENTS      1  1  1  1  1  1  1  2  2  2  2  3  3  3  3  4  4  4  4  2
TYPE ASSIGNMENTS      3  4  2  3  4  2  3  4  2  3  4  2  3  4  2  3  4  2  3  4
TYPE ASSIGNMENTS      2  3  4  2  3  4  5  6  7  8  9 10  5  6  7  8  9 10  5  6
TYPE ASSIGNMENTS      7  8  9 10  5  6  7  8  9 10  5  6  7  8  9 10  5  6  7  8
TYPE ASSIGNMENTS      9 10  5  6  7  8  9 10  5  6  7  8  9 10 11 12 13 17 14 15
TYPE ASSIGNMENTS     18 19 16 20 11 12 13 17 14 15 18 19 16 20 11 12 13 17 14 15
TYPE ASSIGNMENTS     18 19 16 20 11 12 13 17 14 15 18 19 16 20 11 12 13 17 14 15
TYPE ASSIGNMENTS     18 19 16 20 11 12 13 17 14 15 18 19 16 20 23 29 32 27 22 28
TYPE ASSIGNMENTS     35 34 26 31 33 30 25 24 21 23 29 32 27 22 28 35 34 26 31 33
TYPE ASSIGNMENTS     30 25 24 21 23 29 32 27 22 28 35 34 26 31 33 30 25 24 21 23
TYPE ASSIGNMENTS     29 32 27 22 28 35 34 26 31 33 30 25 24 21 36 37 38 39 40 41
TYPE ASSIGNMENTS     42 43 44 45 46 47 48 49 50 51 52 53 54 55 56 36 37 38 39 40
TYPE ASSIGNMENTS     41 42 43 44 45 46 47 48 49 50 51 52 53 54 55 56
EXPONENTS  0.5462000D+05 0.8180000D+04 0.1862000D+04 0.5273000D+03 0.1720000D+03
EXPONENTS  0.6210000D+02 0.2421000D+02 0.9993000D+01 0.4305000D+01 0.5462000D+05
EXPONENTS  0.8180000D+04 0.1862000D+04 0.1720000D+03 0.6210000D+02 0.2421000D+02
EXPONENTS  0.9993000D+01 0.4305000D+01 0.1921000D+01 0.8663000D+00 0.2475000D+00
EXPONENTS  0.1009000D+00 0.4129000D-01 0.4250200D+02 0.1866700D+02 0.8198300D+01
EXPONENTS  0.3600700D+01 0.1280000D-01 0.4375000D+02 0.1033000D+02 0.3226000D+01
EXPONENTS  0.1127000D+01 0.4375000D+02 0.1033000D+02 0.3226000D+01 0.1127000D+01
EXPONENTS  0.4375000D+02 0.1033000D+02 0.3226000D+01 0.1127000D+01 0.4334000D+00
EXPONENTS  0.4334000D+00 0.4334000D+00 0.1808000D+00 0.1808000D+00 0.1808000D+00
EXPONENTS  0.7827000D-01 0.7827000D-01 0.7827000D-01 0.3372000D-01 0.3372000D-01
EXPONENTS  0.3372000D-01 0.4569300D+02 0.4569300D+02 0.4569300D+02 0.1728800D+02
EXPONENTS  0.1728800D+02 0.1728800D+02 0.6541200D+01 0.6541200D+01 0.6541200D+01
EXPONENTS  0.2474900D+01 0.2474900D+01 0.2474900D+01 0.7600000D-03 0.7600000D-03
EXPONENTS  0.7600000D-03 0.1717500D+01 0.1717500D+01 0.1717500D+01 0.1717500D+01
EXPONENTS  0.1717500D+01 0.1717500D+01 0.7646000D+00 0.7646000D+00 0.7646000D+00
EXPONENTS  0.7646000D+00 0.7646000D+00 0.7646000D+00 0.3405000D+00 0.3405000D+00
EXPONENTS  0.3405000D+00 0.3405000D+00 0.3405000D+00 0.3405000D+00 0.1515000D+00
EXPONENTS  0.1515000D+00 0.1515000D+00 0.1515000D+00 0.1515000D+00 0.1515000D+00
EXPONENTS  0.3434900D+02 0.3434900D+02 0.3434900D+02 0.3434900D+02 0.3434900D+02
EXPONENTS  0.3434900D+02 0.1199100D+02 0.1199100D+02 0.1199100D+02 0.1199100D+02
EXPONENTS  0.1199100D+02 0.1199100D+02 0.4185700D+01 0.4185700D+01 0.4185700D+01
EXPONENTS  0.4185700D+01 0.4185700D+01 0.4185700D+01 0.4280000D-01 0.4280000D-01
EXPONENTS  0.4280000D-01 0.4280000D-01 0.4280000D-01 0.4280000D-01 0.6127000D+00
EXPONENTS  0.6127000D+00 0.6127000D+00 0.6127000D+00 0.6127000D+00 0.6127000D+00
EXPONENTS  0.6127000D+00 0.6127000D+00 0.6127000D+00 0.6127000D+00 0.3568000D+00
EXPONENTS  0.3568000D+00 0.3568000D+00 0.3568000D+00 0.3568000D+00 0.3568000D+00
EXPONENTS  0.3568000D+00 0.3568000D+00 0.3568000D+00 0.3568000D+00 0.2078000D+00
EXPONENTS  0.2078000D+00 0.2078000D+00 0.2078000D+00 0.2078000D+00 0.2078000D+00
EXPONENTS  0.2078000D+00 0.2078000D+00 0.2078000D+00 0.2078000D+00 0.1710700D+02
EXPONENTS  0.1710700D+02 0.1710700D+02 0.1710700D+02 0.1710700D+02 0.1710700D+02
EXPONENTS  0.1710700D+02 0.1710700D+02 0.1710700D+02 0.1710700D+02 0.2180100D+01
EXPONENTS  0.2180100D+01 0.2180100D+01 0.2180100D+01 0.2180100D+01 0.2180100D+01
EXPONENTS  0.2180100D+01 0.2180100D+01 0.2180100D+01 0.2180100D+01 0.7190000D-01
EXPONENTS  0.7190000D-01 0.7190000D-01 0.7190000D-01 0.7190000D-01 0.7190000D-01
EXPONENTS  0.7190000D-01 0.7190000D-01 0.7190000D-01 0.7190000D-01 0.5980000D+00
EXPONENTS  0.5980000D+00 0.5980000D+00 0.5980000D+00 0.5980000D+00 0.5980000D+00
EXPONENTS  0.5980000D+00 0.5980000D+00 0.5980000D+00 0.5980000D+00 0.5980000D+00
EXPONENTS  0.5980000D+00 0.5980000D+00 0.5980000D+00 0.5980000D+00 0.3183000D+00
EXPONENTS  0.3183000D+00 0.3183000D+00 0.3183000D+00 0.3183000D+00 0.3183000D+00
EXPONENTS  0.3183000D+00 0.3183000D+00 0.3183000D+00 0.3183000D+00 0.3183000D+00
EXPONENTS  0.3183000D+00 0.3183000D+00 0.3183000D+00 0.3183000D+00 0.2250900D+01
EXPONENTS  0.2250900D+01 0.2250900D+01 0.2250900D+01 0.2250900D+01 0.2250900D+01
EXPONENTS  0.2250900D+01 0.2250900D+01 0.2250900D+01 0.2250900D+01 0.2250900D+01
EXPONENTS  0.2250900D+01 0.2250900D+01 0.2250900D+01 0.2250900D+01 0.9790000D-01
EXPONENTS  0.9790000D-01 0.9790000D-01 0.9790000D-01 0.9790000D-01 0.9790000D-01
EXPONENTS  0.9790000D-01 0.9790000D-01 0.9790000D-01 0.9790000D-01 0.9790000D-01
EXPONENTS  0.9790000D-01 0.9790000D-01 0.9790000D-01 0.9790000D-01 0.5142000D+00
EXPONENTS  0.5142000D+00 0.5142000D+00 0.5142000D+00 0.5142000D+00 0.5142000D+00
EXPONENTS  0.5142000D+00 0.5142000D+00 0.5142000D+00 0.5142000D+00 0.5142000D+00
EXPONENTS  0.5142000D+00 0.5142000D+00 0.5142000D+00 0.5142000D+00 0.5142000D+00
EXPONENTS  0.5142000D+00 0.5142000D+00 0.5142000D+00 0.5142000D+00 0.5142000D+00
EXPONENTS  0.2033000D+00 0.2033000D+00 0.2033000D+00 0.2033000D+00 0.2033000D+00
EXPONENTS  0.2033000D+00 0.2033000D+00 0.2033000D+00 0.2033000D+00 0.2033000D+00
EXPONENTS  0.2033000D+00 0.2033000D+00 0.2033000D+00 0.2033000D+00 0.2033000D+00
EXPONENTS  0.2033000D+00 0.2033000D+00 0.2033000D+00 0.2033000D+00 0.2033000D+00
EXPONENTS  0.2033000D+00
MO    1     MO 0.0        OCC NO =    1.9962536  ORB. ENERGY =    0.000000
  0.50620022D-01  0.86050423D-01  0.14854387D+00  0.23890896D+00  0.37315147D+00
  0.52644669D+00  0.68894453D+00  0.69721473D+00  0.52681557D+00 -0.46704912D-02
 -0.12481005D-02 -0.21284992D-02 -0.30227348D-02  0.11445520D-01  0.22113229D-01
  0.10284404D+00  0.17627751D+00  0.39659687D+00  0.93460278D-01  0.94188454D-03
 -0.12825556D-02 -0.12632461D-03  0.35905385D-03  0.90015119D-03 -0.18212422D-03
 -0.29741309D-03 -0.46332777D-05  0.00000000D+00  0.00000000D+00  0.00000000D+00
  0.00000000D+00  0.00000000D+00  0.00000000D+00  0.00000000D+00  0.00000000D+00
  0.00000000D+00  0.00000000D+00  0.00000000D+00  0.00000000D+00  0.00000000D+00
  0.00000000D+00  0.00000000D+00  0.00000000D+00  0.00000000D+00  0.00000000D+00
  0.00000000D+00  0.00000000D+00  0.00000000D+00  0.00000000D+00  0.00000000D+00
  0.00000000D+00  0.00000000D+00  0.00000000D+00  0.00000000D+00  0.00000000D+00
  0.00000000D+00  0.00000000D+00  0.00000000D+00  0.00000000D+00  0.00000000D+00
  0.00000000D+00  0.00000000D+00  0.00000000D+00  0.00000000D+00  0.00000000D+00
  0.00000000D+00  0.54249358D-14 -0.54487666D-14  0.23830808D-16 -0.12964399D-30
 -0.39457623D-31 -0.76348272D-15 -0.15529769D-14  0.16830119D-14 -0.13003503D-15
  0.38902745D-31  0.11586327D-31  0.67655728D-16  0.29577589D-15 -0.35353211D-15
  0.57756222D-16 -0.89668823D-32 -0.26265528D-32  0.36772665D-16 -0.35131827D-16
  0.41961525D-16 -0.68296989D-17  0.11358550D-32  0.33391184D-33 -0.80568070D-17
 -0.67033636D-13  0.79803788D-13 -0.12770152D-13  0.62381191D-29  0.20474916D-29
 -0.32766372D-13  0.30996069D-13 -0.38975680D-13  0.79796106D-14 -0.25248269D-29
 -0.76795384D-30  0.14113342D-13 -0.13338857D-13  0.14276834D-13 -0.93797720D-15
  0.49051881D-30  0.14888268D-30  0.69549268D-15  0.78910353D-18 -0.12409206D-17
  0.45181706D-18 -0.27577603D-34 -0.77817383D-35  0.59777235D-18  0.00000000D+00
  0.00000000D+00  0.00000000D+00  0.00000000D+00  0.00000000D+00  0.00000000D+00
  0.00000000D+00  0.00000000D+00  0.00000000D+00  0.00000000D+00  0.00000000D+00
  0.00000000D+00  0.00000000D+00  0.00000000D+00  0.00000000D+00  0.00000000D+00
  0.00000000D+00  0.00000000D+00  0.00000000D+00  0.00000000D+00  0.00000000D+00
  0.00000000D+00  0.00000000D+00  0.00000000D+00  0.00000000D+00  0.00000000D+00
  0.00000000D+00  0.00000000D+00  0.00000000D+00  0.00000000D+00  0.00000000D+00
  0.00000000D+00  0.00000000D+00  0.00000000D+00  0.00000000D+00  0.00000000D+00
  0.00000000D+00  0.00000000D+00  0.00000000D+00  0.00000000D+00  0.00000000D+00
  0.00000000D+00  0.00000000D+00  0.00000000D+00  0.00000000D+00  0.00000000D+00
  0.00000000D+00  0.00000000D+00  0.00000000D+00  0.00000000D+00  0.00000000D+00
  0.00000000D+00  0.00000000D+00  0.00000000D+00  0.00000000D+00  0.00000000D+00
  0.00000000D+00  0.00000000D+00  0.00000000D+00  0.00000000D+00 -0.41391374D-17
 -0.16226361D-16  0.15070118D-16  0.18698314D-16 -0.56883671D-16 -0.10604605D-32
 -0.12502432D-32 -0.53321797D-33  0.10860489D-32  0.97647071D-17 -0.74158602D-17
  0.32623191D-15  0.12381998D-32 -0.66930113D-33 -0.55999436D-16 -0.16145717D-17
 -0.24933458D-17  0.46152316D-17  0.24658682D-17  0.10070805D-16  0.23198113D-33
  0.34213737D-33  0.14720885D-33  0.11603253D-33  0.50721985D-17  0.82432735D-19
 -0.65040061D-16 -0.28105075D-33 -0.23007832D-33  0.99946438D-17  0.36948827D-16
  0.11127009D-14 -0.10395768D-15 -0.12117980D-14  0.85182294D-15  0.35737258D-31
  0.39425294D-32  0.18417980D-32 -0.18499035D-30 -0.11773528D-15  0.29729122D-15
 -0.50069800D-14 -0.36351191D-31  0.18367617D-30  0.85411921D-15 -0.15217606D-19
  0.22739132D-18  0.43014970D-19 -0.24230144D-18 -0.25945677D-18 -0.81071562D-35
 -0.86552457D-35 -0.37838739D-35  0.69270566D-35  0.48290664D-19  0.44730355D-19
  0.15137257D-17  0.93684475D-35 -0.40419747D-35 -0.26033605D-18  0.00000000D+00
  0.00000000D+00  0.00000000D+00  0.00000000D+00  0.00000000D+00  0.00000000D+00
  0.00000000D+00  0.00000000D+00  0.00000000D+00  0.00000000D+00  0.00000000D+00
  0.00000000D+00  0.00000000D+00  0.00000000D+00  0.00000000D+00  0.00000000D+00
  0.00000000D+00  0.00000000D+00  0.00000000D+00  0.00000000D+00  0.00000000D+00
  0.00000000D+00  0.00000000D+00  0.00000000D+00  0.00000000D+00  0.00000000D+00
  0.00000000D+00  0.00000000D+00  0.00000000D+00  0.00000000D+00  0.00000000D+00
  0.00000000D+00  0.00000000D+00  0.00000000D+00  0.00000000D+00  0.00000000D+00
  0.00000000D+00  0.00000000D+00  0.00000000D+00  0.00000000D+00  0.00000000D+00
  0.00000000D+00
MO    2     MO 0.0        OCC NO =    1.8260772  ORB. ENERGY =    0.000000
 -0.89543270D-02 -0.15221717D-01 -0.26276369D-01 -0.42261321D-01 -0.66007879D-01
 -0.93124729D-01 -0.12186946D+00 -0.12333240D+00 -0.93189981D-01  0.16069763D-02
  0.42943404D-03  0.73235289D-03  0.10400326D-02 -0.39380611D-02 -0.76085006D-02
 -0.35385558D-01 -0.60651819D-01 -0.13645712D+00 -0.58291654D-01  0.74843710D-01
  0.78577688D-01  0.14166384D-01 -0.58331740D-03  0.87753639D-04 -0.11747725D-02
 -0.10576887D-02 -0.22799585D-04  0.00000000D+00  0.00000000D+00  0.00000000D+00
  0.00000000D+00  0.00000000D+00  0.00000000D+00  0.00000000D+00  0.00000000D+00
  0.00000000D+00  0.00000000D+00  0.00000000D+00  0.00000000D+00  0.00000000D+00
  0.00000000D+00  0.00000000D+00  0.00000000D+00  0.00000000D+00  0.00000000D+00
  0.00000000D+00  0.00000000D+00  0.00000000D+00  0.00000000D+00  0.00000000D+00
  0.00000000D+00  0.00000000D+00  0.00000000D+00  0.00000000D+00  0.00000000D+00
  0.00000000D+00  0.00000000D+00  0.00000000D+00  0.00000000D+00  0.00000000D+00
  0.00000000D+00  0.00000000D+00  0.00000000D+00  0.00000000D+00  0.00000000D+00
  0.00000000D+00 -0.17075472D-14  0.16660739D-14  0.41473315D-16  0.44621403D-31
  0.11632752D-31  0.57577930D-15  0.56513520D-15 -0.53735287D-15 -0.27782328D-16
 -0.86851768D-32 -0.23766568D-32  0.21296873D-15  0.12804708D-16  0.60933949D-16
 -0.73738658D-16  0.14041916D-32  0.41648277D-33 -0.94924750D-16  0.60304826D-16
 -0.26273046D-16 -0.34031781D-16 -0.16772680D-33 -0.55794897D-34  0.19474658D-17
  0.35078196D-13 -0.27823376D-13 -0.72548197D-14  0.85838641D-29  0.29541314D-29
  0.18904046D-12 -0.95482040D-14  0.92458788D-14  0.30232522D-15  0.38476222D-30
  0.42411922D-31  0.10854274D-13  0.46923173D-14 -0.40391242D-14 -0.65319315D-15
 -0.18730500D-30 -0.45573333D-31 -0.48374026D-14 -0.71266601D-18  0.16503495D-17
 -0.93768346D-18  0.76284467D-35  0.27299699D-35 -0.55015910D-18  0.00000000D+00
  0.00000000D+00  0.00000000D+00  0.00000000D+00  0.00000000D+00  0.00000000D+00
  0.00000000D+00  0.00000000D+00  0.00000000D+00  0.00000000D+00  0.00000000D+00
  0.00000000D+00  0.00000000D+00  0.00000000D+00  0.00000000D+00  0.00000000D+00
  0.00000000D+00  0.00000000D+00  0.00000000D+00  0.00000000D+00  0.00000000D+00
  0.00000000D+00  0.00000000D+00  0.00000000D+00  0.00000000D+00  0.00000000D+00
  0.00000000D+00  0.00000000D+00  0.00000000D+00  0.00000000D+00  0.00000000D+00
  0.00000000D+00  0.00000000D+00  0.00000000D+00  0.00000000D+00  0.00000000D+00
  0.00000000D+00  0.00000000D+00  0.00000000D+00  0.00000000D+00  0.00000000D+00
  0.00000000D+00  0.00000000D+00  0.00000000D+00  0.00000000D+00  0.00000000D+00
  0.00000000D+00  0.00000000D+00  0.00000000D+00  0.00000000D+00  0.00000000D+00
  0.00000000D+00  0.00000000D+00  0.00000000D+00  0.00000000D+00  0.00000000D+00
  0.00000000D+00  0.00000000D+00  0.00000000D+00  0.00000000D+00  0.21379481D-16
  0.19419591D-16 -0.78246292D-16 -0.91300486D-17  0.30486695D-16  0.19018204D-32
 -0.82235091D-33 -0.37247647D-33 -0.15761118D-31 -0.50030593D-16 -0.30868626D-16
 -0.10467388D-15 -0.17776616D-32  0.16035234D-31  0.25784078D-16 -0.15383063D-16
  0.20553510D-17  0.48373338D-16  0.30756559D-17 -0.14407527D-16 -0.11305065D-32
  0.17224288D-33  0.77209520D-34  0.75601763D-32  0.43925042D-16 -0.15393021D-16
  0.38071826D-16  0.11047700D-32 -0.76175906D-32 -0.13666145D-16  0.30038875D-15
 -0.11711313D-14 -0.85589566D-15 -0.14814048D-15  0.53323330D-16  0.37276372D-31
  0.49777116D-32  0.21034320D-32 -0.19967823D-30 -0.94643683D-15  0.39578154D-14
  0.53595568D-15 -0.37977516D-31  0.19801900D-30  0.68413526D-16  0.23892107D-19
 -0.22715395D-18 -0.33379984D-18 -0.89003723D-19  0.69136112D-19  0.13638211D-34
 -0.66092250D-35 -0.28993604D-35 -0.11180509D-33  0.19044720D-18  0.94847301D-18
 -0.81016830D-19 -0.12671758D-34  0.11400817D-33 -0.18238396D-19  0.00000000D+00
  0.00000000D+00  0.00000000D+00  0.00000000D+00  0.00000000D+00  0.00000000D+00
  0.00000000D+00  0.00000000D+00  0.00000000D+00  0.00000000D+00  0.00000000D+00
  0.00000000D+00  0.00000000D+00  0.00000000D+00  0.00000000D+00  0.00000000D+00
  0.00000000D+00  0.00000000D+00  0.00000000D+00  0.00000000D+00  0.00000000D+00
  0.00000000D+00  0.00000000D+00  0.00000000D+00  0.00000000D+00  0.00000000D+00
  0.00000000D+00  0.00000000D+00  0.00000000D+00  0.00000000D+00  0.00000000D+00
  0.00000000D+00  0.00000000D+00  0.00000000D+00  0.00000000D+00  0.00000000D+00
  0.00000000D+00  0.00000000D+00  0.00000000D+00  0.00000000D+00  0.00000000D+00
  0.00000000D+00
MO    3     MO 0.0        OCC NO =    0.0565394  ORB. ENERGY =    0.000000
  0.00000000D+00  0.00000000D+00  0.00000000D+00  0.00000000D+00  0.00000000D+00
  0.00000000D+00  0.00000000D+00  0.00000000D+00  0.00000000D+00  0.00000000D+00
  0.00000000D+00  0.00000000D+00  0.00000000D+00  0.00000000D+00  0.00000000D+00
  0.00000000D+00  0.00000000D+00  0.00000000D+00  0.00000000D+00  0.00000000D+00
  0.00000000D+00  0.00000000D+00  0.00000000D+00  0.00000000D+00  0.00000000D+00
  0.00000000D+00  0.00000000D+00  0.75388743D-01  0.94247553D-01  0.93936886D-01
  0.83352242D-01  0.00000000D+00  0.00000000D+00  0.00000000D+00  0.00000000D+00
  0.00000000D+00  0.00000000D+00  0.00000000D+00  0.00000000D+00  0.11471670D+00
  0.00000000D+00  0.00000000D+00  0.88520926D-01  0.00000000D+00  0.00000000D+00
  0.17639791D-01  0.00000000D+00  0.00000000D+00  0.35323081D-03  0.00000000D+00
  0.00000000D+00  0.22358846D-01  0.00000000D+00  0.00000000D+00  0.33876095D-01
  0.00000000D+00  0.00000000D+00  0.35553177D-01  0.00000000D+00  0.00000000D+00
  0.22940355D-01  0.00000000D+00  0.00000000D+00  0.22113058D-08  0.00000000D+00
  0.00000000D+00  0.00000000D+00  0.00000000D+00  0.00000000D+00  0.00000000D+00
  0.00000000D+00  0.00000000D+00  0.00000000D+00  0.00000000D+00  0.00000000D+00
  0.00000000D+00  0.00000000D+00  0.00000000D+00  0.00000000D+00  0.00000000D+00
  0.00000000D+00  0.00000000D+00  0.00000000D+00  0.00000000D+00  0.00000000D+00
  0.00000000D+00  0.00000000D+00  0.00000000D+00  0.00000000D+00  0.00000000D+00
  0.00000000D+00  0.00000000D+00  0.00000000D+00  0.00000000D+00  0.00000000D+00
  0.00000000D+00  0.00000000D+00  0.00000000D+00  0.00000000D+00  0.00000000D+00
  0.00000000D+00  0.00000000D+00  0.00000000D+00  0.00000000D+00  0.00000000D+00
  0.00000000D+00  0.00000000D+00  0.00000000D+00  0.00000000D+00  0.00000000D+00
  0.00000000D+00  0.00000000D+00  0.00000000D+00  0.00000000D+00 -0.58670432D-15
  0.00000000D+00  0.00000000D+00  0.78506437D-15  0.00000000D+00  0.00000000D+00
  0.97504857D-15  0.00000000D+00  0.00000000D+00  0.00000000D+00  0.18081246D-15
  0.00000000D+00  0.00000000D+00 -0.28961094D-15  0.00000000D+00  0.00000000D+00
 -0.25282644D-15  0.00000000D+00  0.00000000D+00  0.00000000D+00 -0.80940983D-16
  0.00000000D+00  0.00000000D+00  0.11564902D-15  0.00000000D+00  0.00000000D+00
  0.12717393D-15  0.00000000D+00  0.00000000D+00  0.00000000D+00  0.67801714D-13
  0.00000000D+00  0.00000000D+00 -0.65507578D-13  0.00000000D+00  0.00000000D+00
 -0.13789757D-12  0.00000000D+00  0.00000000D+00  0.00000000D+00 -0.12658827D-15
  0.00000000D+00  0.00000000D+00 -0.13933169D-14  0.00000000D+00  0.00000000D+00
  0.17730817D-14  0.00000000D+00  0.00000000D+00  0.00000000D+00  0.30125182D-17
  0.00000000D+00  0.00000000D+00  0.79886075D-17  0.00000000D+00  0.00000000D+00
 -0.17026162D-16  0.00000000D+00  0.00000000D+00  0.00000000D+00  0.00000000D+00
  0.00000000D+00  0.00000000D+00  0.00000000D+00  0.00000000D+00  0.00000000D+00
  0.00000000D+00  0.00000000D+00  0.00000000D+00  0.00000000D+00  0.00000000D+00
  0.00000000D+00  0.00000000D+00  0.00000000D+00  0.00000000D+00  0.00000000D+00
  0.00000000D+00  0.00000000D+00  0.00000000D+00  0.00000000D+00  0.00000000D+00
  0.00000000D+00  0.00000000D+00  0.00000000D+00  0.00000000D+00  0.00000000D+00
  0.00000000D+00  0.00000000D+00  0.00000000D+00  0.00000000D+00  0.00000000D+00
  0.00000000D+00  0.00000000D+00  0.00000000D+00  0.00000000D+00  0.00000000D+00
  0.00000000D+00  0.00000000D+00  0.00000000D+00  0.00000000D+00  0.00000000D+00
  0.00000000D+00  0.00000000D+00  0.00000000D+00  0.00000000D+00  0.00000000D+00
  0.00000000D+00  0.00000000D+00  0.00000000D+00  0.00000000D+00  0.00000000D+00
  0.00000000D+00  0.00000000D+00  0.00000000D+00  0.00000000D+00  0.00000000D+00
  0.00000000D+00  0.00000000D+00  0.00000000D+00  0.00000000D+00  0.00000000D+00
  0.00000000D+00  0.00000000D+00  0.00000000D+00  0.00000000D+00  0.00000000D+00
 -0.21069895D-16  0.00000000D+00 -0.24906462D-15  0.00000000D+00 -0.47206859D-16
  0.00000000D+00  0.00000000D+00  0.00000000D+00  0.00000000D+00  0.12516133D-15
  0.00000000D+00  0.17743526D-15  0.00000000D+00  0.00000000D+00 -0.30259659D-16
  0.00000000D+00  0.00000000D+00  0.00000000D+00  0.00000000D+00  0.00000000D+00
  0.00000000D+00  0.23261793D-17  0.00000000D+00  0.10149893D-16  0.00000000D+00
  0.24922950D-17  0.00000000D+00  0.00000000D+00  0.00000000D+00  0.00000000D+00
 -0.80356562D-17  0.00000000D+00 -0.83678877D-17  0.00000000D+00  0.00000000D+00
  0.16403544D-17
MO    4     MO 0.0        OCC NO =    0.0565394  ORB. ENERGY =    0.000000
  0.00000000D+00  0.00000000D+00  0.00000000D+00  0.00000000D+00  0.00000000D+00
  0.00000000D+00  0.00000000D+00  0.00000000D+00  0.00000000D+00  0.00000000D+00
  0.00000000D+00  0.00000000D+00  0.00000000D+00  0.00000000D+00  0.00000000D+00
  0.00000000D+00  0.00000000D+00  0.00000000D+00  0.00000000D+00  0.00000000D+00
  0.00000000D+00  0.00000000D+00  0.00000000D+00  0.00000000D+00  0.00000000D+00
  0.00000000D+00  0.00000000D+00  0.00000000D+00  0.00000000D+00  0.00000000D+00
  0.00000000D+00  0.75388743D-01  0.94247553D-01  0.93936886D-01  0.83352242D-01
  0.00000000D+00  0.00000000D+00  0.00000000D+00  0.00000000D+00  0.00000000D+00
  0.11471670D+00  0.00000000D+00  0.00000000D+00  0.88520926D-01  0.00000000D+00
  0.00000000D+00  0.17639791D-01  0.00000000D+00  0.00000000D+00  0.35323081D-03
  0.00000000D+00  0.00000000D+00  0.22358846D-01  0.00000000D+00  0.00000000D+00
  0.33876095D-01  0.00000000D+00  0.00000000D+00  0.35553177D-01  0.00000000D+00
  0.00000000D+00  0.22940355D-01  0.00000000D+00  0.00000000D+00  0.22113058D-08
  0.00000000D+00  0.00000000D+00  0.00000000D+00  0.00000000D+00  0.00000000D+00
  0.00000000D+00  0.00000000D+00  0.00000000D+00  0.00000000D+00  0.00000000D+00
  0.00000000D+00  0.00000000D+00  0.00000000D+00  0.00000000D+00  0.00000000D+00
  0.00000000D+00  0.00000000D+00  0.00000000D+00  0.00000000D+00  0.00000000D+00
  0.00000000D+00  0.00000000D+00  0.00000000D+00  0.00000000D+00  0.00000000D+00
  0.00000000D+00  0.00000000D+00  0.00000000D+00  0.00000000D+00  0.00000000D+00
  0.00000000D+00  0.00000000D+00  0.00000000D+00  0.00000000D+00  0.00000000D+00
  0.00000000D+00  0.00000000D+00  0.00000000D+00  0.00000000D+00  0.00000000D+00
  0.00000000D+00  0.00000000D+00  0.00000000D+00  0.00000000D+00  0.00000000D+00
  0.00000000D+00  0.00000000D+00  0.00000000D+00  0.00000000D+00  0.00000000D+00
  0.70210570D-16  0.00000000D+00  0.00000000D+00 -0.13826932D-15  0.00000000D+00
  0.00000000D+00 -0.72362393D-16  0.00000000D+00  0.00000000D+00  0.00000000D+00
 -0.55850461D-16  0.00000000D+00  0.00000000D+00  0.16158393D-15  0.00000000D+00
  0.00000000D+00  0.59674504D-17  0.00000000D+00  0.00000000D+00  0.00000000D+00
  0.54521183D-16  0.00000000D+00  0.00000000D+00 -0.22322323D-15  0.00000000D+00
  0.00000000D+00  0.59659682D-16  0.00000000D+00  0.00000000D+00  0.00000000D+00
  0.86223513D-13  0.00000000D+00  0.00000000D+00 -0.43437429D-13  0.00000000D+00
  0.00000000D+00 -0.21523311D-12  0.00000000D+00  0.00000000D+00  0.00000000D+00
 -0.20733365D-14  0.00000000D+00  0.00000000D+00  0.34188980D-14  0.00000000D+00
  0.00000000D+00  0.28011115D-14  0.00000000D+00  0.00000000D+00  0.00000000D+00
  0.49463262D-17  0.00000000D+00  0.00000000D+00  0.30467917D-17  0.00000000D+00
  0.00000000D+00 -0.17885770D-16  0.00000000D+00  0.00000000D+00  0.00000000D+00
  0.00000000D+00  0.00000000D+00  0.00000000D+00  0.00000000D+00  0.00000000D+00
  0.00000000D+00  0.00000000D+00  0.00000000D+00  0.00000000D+00  0.00000000D+00
  0.00000000D+00  0.00000000D+00  0.00000000D+00  0.00000000D+00  0.00000000D+00
  0.00000000D+00  0.00000000D+00  0.00000000D+00  0.00000000D+00  0.00000000D+00
  0.00000000D+00  0.00000000D+00  0.00000000D+00  0.00000000D+00  0.00000000D+00
  0.00000000D+00  0.00000000D+00  0.00000000D+00  0.00000000D+00  0.00000000D+00
  0.00000000D+00  0.00000000D+00  0.00000000D+00  0.00000000D+00  0.00000000D+00
  0.00000000D+00  0.00000000D+00  0.00000000D+00  0.00000000D+00  0.00000000D+00
  0.00000000D+00  0.00000000D+00  0.00000000D+00  0.00000000D+00  0.00000000D+00
  0.00000000D+00  0.00000000D+00  0.00000000D+00  0.00000000D+00  0.00000000D+00
  0.00000000D+00  0.00000000D+00  0.00000000D+00  0.00000000D+00  0.00000000D+00
  0.00000000D+00  0.00000000D+00  0.00000000D+00  0.00000000D+00  0.00000000D+00
  0.14352169D-16  0.00000000D+00 -0.41592784D-16  0.00000000D+00 -0.96684452D-17
  0.00000000D+00  0.00000000D+00  0.00000000D+00  0.00000000D+00  0.00000000D+00
  0.00000000D+00  0.38665341D-16  0.00000000D+00  0.13827724D-15  0.00000000D+00
  0.00000000D+00  0.00000000D+00  0.00000000D+00 -0.75582842D-16  0.00000000D+00
  0.00000000D+00 -0.13069452D-17  0.00000000D+00  0.47660507D-17  0.00000000D+00
 -0.61423177D-19  0.00000000D+00  0.00000000D+00  0.00000000D+00  0.00000000D+00
  0.00000000D+00  0.00000000D+00 -0.64564807D-17  0.00000000D+00 -0.41518190D-17
  0.00000000D+00  0.00000000D+00  0.00000000D+00  0.00000000D+00  0.31519896D-17
  0.00000000D+00
MO    5     MO 0.0        OCC NO =    0.0565394  ORB. ENERGY =    0.000000
  0.00000000D+00  0.00000000D+00  0.00000000D+00  0.00000000D+00  0.00000000D+00
  0.00000000D+00  0.00000000D+00  0.00000000D+00  0.00000000D+00  0.00000000D+00
  0.00000000D+00  0.00000000D+00  0.00000000D+00  0.00000000D+00  0.00000000D+00
  0.00000000D+00  0.00000000D+00  0.00000000D+00  0.00000000D+00  0.00000000D+00
  0.00000000D+00  0.00000000D+00  0.00000000D+00  0.00000000D+00  0.00000000D+00
  0.00000000D+00  0.00000000D+00  0.00000000D+00  0.00000000D+00  0.00000000D+00
  0.00000000D+00  0.00000000D+00  0.00000000D+00  0.00000000D+00  0.00000000D+00
  0.75388743D-01  0.94247553D-01  0.93936886D-01  0.83352242D-01  0.00000000D+00
  0.00000000D+00  0.11471670D+00  0.00000000D+00  0.00000000D+00  0.88520926D-01
  0.00000000D+00  0.00000000D+00  0.17639791D-01  0.00000000D+00  0.00000000D+00
  0.35323081D-03  0.00000000D+00  0.00000000D+00  0.22358846D-01  0.00000000D+00
  0.00000000D+00  0.33876095D-01  0.00000000D+00  0.00000000D+00  0.35553177D-01
  0.00000000D+00  0.00000000D+00  0.22940355D-01  0.00000000D+00  0.00000000D+00
  0.22113058D-08  0.00000000D+00  0.00000000D+00  0.00000000D+00  0.00000000D+00
  0.00000000D+00  0.00000000D+00  0.00000000D+00  0.00000000D+00  0.00000000D+00
  0.00000000D+00  0.00000000D+00  0.00000000D+00  0.00000000D+00  0.00000000D+00
  0.00000000D+00  0.00000000D+00  0.00000000D+00  0.00000000D+00  0.00000000D+00
  0.00000000D+00  0.00000000D+00  0.00000000D+00  0.00000000D+00  0.00000000D+00
  0.00000000D+00  0.00000000D+00  0.00000000D+00  0.00000000D+00  0.00000000D+00
  0.00000000D+00  0.00000000D+00  0.00000000D+00  0.00000000D+00  0.00000000D+00
  0.00000000D+00  0.00000000D+00  0.00000000D+00  0.00000000D+00  0.00000000D+00
  0.00000000D+00  0.00000000D+00  0.00000000D+00  0.00000000D+00  0.00000000D+00
  0.00000000D+00  0.00000000D+00  0.00000000D+00  0.00000000D+00  0.00000000D+00
  0.00000000D+00 -0.41246283D-15  0.00000000D+00  0.00000000D+00  0.16774948D-15
  0.00000000D+00  0.00000000D+00  0.10696390D-14  0.00000000D+00  0.00000000D+00
  0.00000000D+00  0.33682679D-15  0.00000000D+00  0.00000000D+00 -0.21723019D-15
  0.00000000D+00  0.00000000D+00 -0.79325018D-15  0.00000000D+00  0.00000000D+00
  0.00000000D+00 -0.52478611D-16  0.00000000D+00  0.00000000D+00 -0.41946855D-16
  0.00000000D+00  0.00000000D+00  0.19938269D-15  0.00000000D+00  0.00000000D+00
  0.00000000D+00 -0.16071895D-12  0.00000000D+00  0.00000000D+00  0.27581846D-12
  0.00000000D+00  0.00000000D+00  0.20633840D-12  0.00000000D+00  0.00000000D+00
  0.00000000D+00  0.40061923D-14  0.00000000D+00  0.00000000D+00 -0.53498616D-14
  0.00000000D+00  0.00000000D+00 -0.66687155D-14  0.00000000D+00  0.00000000D+00
  0.00000000D+00 -0.42087490D-17  0.00000000D+00  0.00000000D+00  0.49213310D-17
  0.00000000D+00  0.00000000D+00  0.77049159D-17  0.00000000D+00  0.00000000D+00
  0.00000000D+00  0.00000000D+00  0.00000000D+00  0.00000000D+00  0.00000000D+00
  0.00000000D+00  0.00000000D+00  0.00000000D+00  0.00000000D+00  0.00000000D+00
  0.00000000D+00  0.00000000D+00  0.00000000D+00  0.00000000D+00  0.00000000D+00
  0.00000000D+00  0.00000000D+00  0.00000000D+00  0.00000000D+00  0.00000000D+00
  0.00000000D+00  0.00000000D+00  0.00000000D+00  0.00000000D+00  0.00000000D+00
  0.00000000D+00  0.00000000D+00  0.00000000D+00  0.00000000D+00  0.00000000D+00
  0.00000000D+00  0.00000000D+00  0.00000000D+00  0.00000000D+00  0.00000000D+00
  0.00000000D+00  0.00000000D+00  0.00000000D+00  0.00000000D+00  0.00000000D+00
  0.00000000D+00  0.00000000D+00  0.00000000D+00  0.00000000D+00  0.00000000D+00
  0.00000000D+00  0.00000000D+00  0.00000000D+00  0.00000000D+00  0.00000000D+00
  0.00000000D+00  0.00000000D+00  0.00000000D+00  0.00000000D+00  0.00000000D+00
  0.00000000D+00  0.00000000D+00  0.00000000D+00  0.00000000D+00 -0.14152956D-16
  0.00000000D+00 -0.90642464D-17  0.00000000D+00  0.26628258D-16  0.00000000D+00
  0.00000000D+00  0.00000000D+00  0.00000000D+00  0.00000000D+00  0.00000000D+00
  0.15059381D-15  0.00000000D+00 -0.13257681D-15  0.00000000D+00  0.00000000D+00
  0.00000000D+00  0.00000000D+00 -0.53200770D-16  0.00000000D+00  0.00000000D+00
  0.12597463D-17  0.00000000D+00 -0.14011435D-16  0.00000000D+00  0.42521040D-17
  0.00000000D+00  0.00000000D+00  0.00000000D+00  0.00000000D+00  0.00000000D+00
  0.00000000D+00  0.14139726D-17  0.00000000D+00  0.16521682D-16  0.00000000D+00
  0.00000000D+00  0.00000000D+00  0.00000000D+00 -0.34606000D-17  0.00000000D+00
  0.00000000D+00
MO    6     MO 0.0        OCC NO =    0.0036625  ORB. ENERGY =    0.000000
  0.29915190D-01  0.50853688D-01  0.87785781D-01  0.14118933D+00  0.22052336D+00
  0.31111707D+00  0.40714931D+00  0.41203679D+00  0.31133507D+00 -0.20295900D-02
 -0.54236956D-03 -0.92495209D-03 -0.13135475D-02  0.49737195D-02  0.96094364D-02