 Title Card Required
GAUSSIAN            173 MOL ORBITALS    274 PRIMITIVES        1 NUCLEI
  C    1    (CENTRE  1)   0.00000000  0.00000000  0.00000000  CHARGE =  6.0
CENTRE ASSIGNMENTS    1  1  1  1  1  1  1  1  1  1  1  1  1  1  1  1  1  1  1  1
CENTRE ASSIGNMENTS    1  1  1  1  1  1  1  1  1  1  1  1  1  1  1  1  1  1  1  1
CENTRE ASSIGNMENTS    1  1  1  1  1  1  1  1  1  1  1  1  1  1  1  1  1  1  1  1
CENTRE ASSIGNMENTS    1  1  1  1  1  1  1  1  1  1  1  1  1  1  1  1  1  1  1  1
CENTRE ASSIGNMENTS    1  1  1  1  1  1  1  1  1  1  1  1  1  1  1  1  1  1  1  1
CENTRE ASSIGNMENTS    1  1  1  1  1  1  1  1  1  1  1  1  1  1  1  1  1  1  1  1
CENTRE ASSIGNMENTS    1  1  1  1  1  1  1  1  1  1  1  1  1  1  1  1  1  1  1  1
CENTRE ASSIGNMENTS    1  1  1  1  1  1  1  1  1  1  1  1  1  1  1  1  1  1  1  1
CENTRE ASSIGNMENTS    1  1  1  1  1  1  1  1  1  1  1  1  1  1  1  1  1  1  1  1
CENTRE ASSIGNMENTS    1  1  1  1  1  1  1  1  1  1  1  1  1  1  1  1  1  1  1  1
CENTRE ASSIGNMENTS    1  1  1  1  1  1  1  1  1  1  1  1  1  1  1  1  1  1  1  1
CENTRE ASSIGNMENTS    1  1  1  1  1  1  1  1  1  1  1  1  1  1  1  1  1  1  1  1
CENTRE ASSIGNMENTS    1  1  1  1  1  1  1  1  1  1  1  1  1  1  1  1  1  1  1  1
CENTRE ASSIGNMENTS    1  1  1  1  1  1  1  1  1  1  1  1  1  1
TYPE ASSIGNMENTS      1  1  1  1  1  1  1  1  1  1  1  1  1  1  1  1  1  1  1  1
TYPE ASSIGNMENTS      1  1  1  1  1  2  2  2  2  3  3  3  3  4  4  4  4  2  3  4
TYPE ASSIGNMENTS      2  3  4  2  3  4  2  3  4  2  3  4  2  3  4  2  3  4  2  3
TYPE ASSIGNMENTS      4  2  3  4  5  6  7  8  9 10  5  6  7  8  9 10  5  6  7  8
TYPE ASSIGNMENTS      9 10  5  6  7  8  9 10  5  6  7  8  9 10  5  6  7  8  9 10
TYPE ASSIGNMENTS      5  6  7  8  9 10  5  6  7  8  9 10 11 12 13 17 14 15 18 19
TYPE ASSIGNMENTS     16 20 11 12 13 17 14 15 18 19 16 20 11 12 13 17 14 15 18 19
TYPE ASSIGNMENTS     16 20 11 12 13 17 14 15 18 19 16 20 11 12 13 17 14 15 18 19
TYPE ASSIGNMENTS     16 20 11 12 13 17 14 15 18 19 16 20 23 29 32 27 22 28 35 34
TYPE ASSIGNMENTS     26 31 33 30 25 24 21 23 29 32 27 22 28 35 34 26 31 33 30 25
TYPE ASSIGNMENTS     24 21 23 29 32 27 22 28 35 34 26 31 33 30 25 24 21 23 29 32
TYPE ASSIGNMENTS     27 22 28 35 34 26 31 33 30 25 24 21 36 37 38 39 40 41 42 43
TYPE ASSIGNMENTS     44 45 46 47 48 49 50 51 52 53 54 55 56 36 37 38 39 40 41 42
TYPE ASSIGNMENTS     43 44 45 46 47 48 49 50 51 52 53 54 55 56
EXPONENTS  0.9677000D+05 0.1450000D+05 0.3300000D+04 0.9358000D+03 0.3062000D+03
EXPONENTS  0.1113000D+03 0.4390000D+02 0.1840000D+02 0.8054000D+01 0.9358000D+03
EXPONENTS  0.3062000D+03 0.1113000D+03 0.4390000D+02 0.1840000D+02 0.8054000D+01
EXPONENTS  0.3637000D+01 0.1656000D+01 0.6333000D+00 0.2545000D+00 0.1019000D+00
EXPONENTS  0.7967000D+01 0.1745200D+02 0.3822600D+02 0.8373100D+02 0.3940000D-01
EXPONENTS  0.1018000D+03 0.2404000D+02 0.7571000D+01 0.2732000D+01 0.1018000D+03
EXPONENTS  0.2404000D+02 0.7571000D+01 0.2732000D+01 0.1018000D+03 0.2404000D+02
EXPONENTS  0.7571000D+01 0.2732000D+01 0.1085000D+01 0.1085000D+01 0.1085000D+01
EXPONENTS  0.4496000D+00 0.4496000D+00 0.4496000D+00 0.1876000D+00 0.1876000D+00
EXPONENTS  0.1876000D+00 0.7606000D-01 0.7606000D-01 0.7606000D-01 0.6080000D+01
EXPONENTS  0.6080000D+01 0.6080000D+01 0.1535800D+02 0.1535800D+02 0.1535800D+02
EXPONENTS  0.3879900D+02 0.3879900D+02 0.3879900D+02 0.9801700D+02 0.9801700D+02
EXPONENTS  0.9801700D+02 0.2720000D-01 0.2720000D-01 0.2720000D-01 0.3134000D+01
EXPONENTS  0.3134000D+01 0.3134000D+01 0.3134000D+01 0.3134000D+01 0.3134000D+01
EXPONENTS  0.1233000D+01 0.1233000D+01 0.1233000D+01 0.1233000D+01 0.1233000D+01
EXPONENTS  0.1233000D+01 0.4850000D+00 0.4850000D+00 0.4850000D+00 0.4850000D+00
EXPONENTS  0.4850000D+00 0.4850000D+00 0.1910000D+00 0.1910000D+00 0.1910000D+00
EXPONENTS  0.1910000D+00 0.1910000D+00 0.1910000D+00 0.7591000D+01 0.7591000D+01
EXPONENTS  0.7591000D+01 0.7591000D+01 0.7591000D+01 0.7591000D+01 0.2141900D+02
EXPONENTS  0.2141900D+02 0.2141900D+02 0.2141900D+02 0.2141900D+02 0.2141900D+02
EXPONENTS  0.6043900D+02 0.6043900D+02 0.6043900D+02 0.6043900D+02 0.6043900D+02
EXPONENTS  0.6043900D+02 0.7010000D-01 0.7010000D-01 0.7010000D-01 0.7010000D-01
EXPONENTS  0.7010000D-01 0.7010000D-01 0.2006000D+01 0.2006000D+01 0.2006000D+01
EXPONENTS  0.2006000D+01 0.2006000D+01 0.2006000D+01 0.2006000D+01 0.2006000D+01
EXPONENTS  0.2006000D+01 0.2006000D+01 0.8380000D+00 0.8380000D+00 0.8380000D+00
EXPONENTS  0.8380000D+00 0.8380000D+00 0.8380000D+00 0.8380000D+00 0.8380000D+00
EXPONENTS  0.8380000D+00 0.8380000D+00 0.3500000D+00 0.3500000D+00 0.3500000D+00
EXPONENTS  0.3500000D+00 0.3500000D+00 0.3500000D+00 0.3500000D+00 0.3500000D+00
EXPONENTS  0.3500000D+00 0.3500000D+00 0.6698000D+01 0.6698000D+01 0.6698000D+01
EXPONENTS  0.6698000D+01 0.6698000D+01 0.6698000D+01 0.6698000D+01 0.6698000D+01
EXPONENTS  0.6698000D+01 0.6698000D+01 0.2439800D+02 0.2439800D+02 0.2439800D+02
EXPONENTS  0.2439800D+02 0.2439800D+02 0.2439800D+02 0.2439800D+02 0.2439800D+02
EXPONENTS  0.2439800D+02 0.2439800D+02 0.1380000D+00 0.1380000D+00 0.1380000D+00
EXPONENTS  0.1380000D+00 0.1380000D+00 0.1380000D+00 0.1380000D+00 0.1380000D+00
EXPONENTS  0.1380000D+00 0.1380000D+00 0.1753000D+01 0.1753000D+01 0.1753000D+01
EXPONENTS  0.1753000D+01 0.1753000D+01 0.1753000D+01 0.1753000D+01 0.1753000D+01
EXPONENTS  0.1753000D+01 0.1753000D+01 0.1753000D+01 0.1753000D+01 0.1753000D+01
EXPONENTS  0.1753000D+01 0.1753000D+01 0.6780000D+00 0.6780000D+00 0.6780000D+00
EXPONENTS  0.6780000D+00 0.6780000D+00 0.6780000D+00 0.6780000D+00 0.6780000D+00
EXPONENTS  0.6780000D+00 0.6780000D+00 0.6780000D+00 0.6780000D+00 0.6780000D+00
EXPONENTS  0.6780000D+00 0.6780000D+00 0.7311000D+01 0.7311000D+01 0.7311000D+01
EXPONENTS  0.7311000D+01 0.7311000D+01 0.7311000D+01 0.7311000D+01 0.7311000D+01
EXPONENTS  0.7311000D+01 0.7311000D+01 0.7311000D+01 0.7311000D+01 0.7311000D+01
EXPONENTS  0.7311000D+01 0.7311000D+01 0.3190000D+00 0.3190000D+00 0.3190000D+00
EXPONENTS  0.3190000D+00 0.3190000D+00 0.3190000D+00 0.3190000D+00 0.3190000D+00
EXPONENTS  0.3190000D+00 0.3190000D+00 0.3190000D+00 0.3190000D+00 0.3190000D+00
EXPONENTS  0.3190000D+00 0.3190000D+00 0.1259000D+01 0.1259000D+01 0.1259000D+01
EXPONENTS  0.1259000D+01 0.1259000D+01 0.1259000D+01 0.1259000D+01 0.1259000D+01
EXPONENTS  0.1259000D+01 0.1259000D+01 0.1259000D+01 0.1259000D+01 0.1259000D+01
EXPONENTS  0.1259000D+01 0.1259000D+01 0.1259000D+01 0.1259000D+01 0.1259000D+01
EXPONENTS  0.1259000D+01 0.1259000D+01 0.1259000D+01 0.5860000D+00 0.5860000D+00
EXPONENTS  0.5860000D+00 0.5860000D+00 0.5860000D+00 0.5860000D+00 0.5860000D+00
EXPONENTS  0.5860000D+00 0.5860000D+00 0.5860000D+00 0.5860000D+00 0.5860000D+00
EXPONENTS  0.5860000D+00 0.5860000D+00 0.5860000D+00 0.5860000D+00 0.5860000D+00
EXPONENTS  0.5860000D+00 0.5860000D+00 0.5860000D+00 0.5860000D+00
MO    1     MO 0.0        OCC NO =    1.9983765  ORB. ENERGY =    0.000000
  0.10292971D+00  0.17815598D+00  0.31210060D+00  0.50469081D+00  0.77548860D+00
  0.10851154D+01  0.13555695D+01  0.13273533D+01  0.85411970D+00  0.26496483D-02
  0.41947864D-02  0.27797195D-01  0.69184261D-01  0.20398874D+00  0.37802998D+00
  0.55866149D+00  0.78696473D-01 -0.43948690D-02 -0.22302266D-02 -0.40332211D-04
  0.17025446D-02 -0.63462388D-03  0.13096078D-03 -0.29919465D-04 -0.25512692D-05
  0.00000000D+00  0.00000000D+00  0.00000000D+00  0.00000000D+00  0.00000000D+00
  0.00000000D+00  0.00000000D+00  0.00000000D+00  0.00000000D+00  0.00000000D+00
  0.00000000D+00  0.00000000D+00  0.00000000D+00  0.00000000D+00  0.00000000D+00
  0.00000000D+00  0.00000000D+00  0.00000000D+00  0.00000000D+00  0.00000000D+00
  0.00000000D+00  0.00000000D+00  0.00000000D+00  0.00000000D+00  0.00000000D+00
  0.00000000D+00  0.00000000D+00  0.00000000D+00  0.00000000D+00  0.00000000D+00
  0.00000000D+00  0.00000000D+00  0.00000000D+00  0.00000000D+00  0.00000000D+00
  0.00000000D+00  0.00000000D+00  0.00000000D+00  0.00000000D+00  0.36592832D-14
 -0.13079120D-13  0.94198366D-14  0.39014496D-32  0.57026507D-32  0.12905837D-15
 -0.39043748D-15  0.90359369D-15 -0.51315621D-15  0.19452153D-31  0.55355600D-32
  0.22134599D-15  0.20237775D-15 -0.51598216D-15  0.31360441D-15 -0.39091459D-32
 -0.86559117D-33 -0.78273350D-16 -0.12039832D-16 -0.71744657D-17  0.19214298D-16
  0.85039693D-33  0.25246902D-33  0.12828358D-16  0.49909448D-14 -0.83296543D-16
 -0.49076482D-14 -0.27719847D-30 -0.64329637D-31 -0.16528339D-13  0.11713807D-13
 -0.11403542D-12  0.10232161D-12  0.37216269D-29  0.98384851D-30  0.96698061D-13
 -0.13015601D-12  0.88610734D-13  0.41545278D-13 -0.51980304D-29 -0.88044599D-30
 -0.11283899D-12  0.18274848D-18 -0.16918927D-17  0.15091443D-17 -0.39079503D-34
 -0.85463024D-35 -0.67013996D-18  0.00000000D+00  0.00000000D+00  0.00000000D+00
  0.00000000D+00  0.00000000D+00  0.00000000D+00  0.00000000D+00  0.00000000D+00
  0.00000000D+00  0.00000000D+00  0.00000000D+00  0.00000000D+00  0.00000000D+00
  0.00000000D+00  0.00000000D+00  0.00000000D+00  0.00000000D+00  0.00000000D+00
  0.00000000D+00  0.00000000D+00  0.00000000D+00  0.00000000D+00  0.00000000D+00
  0.00000000D+00  0.00000000D+00  0.00000000D+00  0.00000000D+00  0.00000000D+00
  0.00000000D+00  0.00000000D+00  0.00000000D+00  0.00000000D+00  0.00000000D+00
  0.00000000D+00  0.00000000D+00  0.00000000D+00  0.00000000D+00  0.00000000D+00
  0.00000000D+00  0.00000000D+00  0.00000000D+00  0.00000000D+00  0.00000000D+00
  0.00000000D+00  0.00000000D+00  0.00000000D+00  0.00000000D+00  0.00000000D+00
  0.00000000D+00  0.00000000D+00  0.00000000D+00  0.00000000D+00  0.00000000D+00
  0.00000000D+00  0.00000000D+00  0.00000000D+00  0.00000000D+00  0.00000000D+00
  0.00000000D+00  0.00000000D+00  0.13616587D-15 -0.24304338D-14 -0.52038769D-15
 -0.15182975D-14  0.10940495D-15 -0.13038598D-32 -0.64337186D-32 -0.25167077D-32
 -0.63117488D-32 -0.29660751D-15  0.11846194D-13 -0.13604202D-15  0.21427624D-32
  0.84563216D-32  0.72108256D-16  0.53956342D-17 -0.36396010D-16 -0.12597946D-16
 -0.93937139D-17  0.69153521D-17  0.63953937D-33  0.35613939D-33  0.13656094D-33
 -0.31368592D-32 -0.19775859D-16  0.13736917D-15 -0.28894166D-16 -0.68505969D-33
  0.30181461D-32  0.81116709D-17  0.23537723D-13  0.11291413D-12 -0.69169366D-13
  0.67403815D-13  0.22985940D-13  0.95255328D-30  0.93420915D-31  0.39126175D-31
 -0.52536134D-29 -0.72056972D-13 -0.54095385D-12 -0.68746275D-13 -0.96559534D-30
  0.52224731D-29  0.23467208D-13  0.18801195D-18  0.20053044D-16 -0.10817423D-17
  0.10658725D-16  0.12158626D-17  0.55288524D-34  0.40804445D-35  0.40400047D-35
 -0.18154307D-33 -0.46329360D-19 -0.92135306D-16 -0.62134335D-17 -0.56635192D-34
  0.18018293D-33  0.10432938D-17  0.00000000D+00  0.00000000D+00  0.00000000D+00
  0.00000000D+00  0.00000000D+00  0.00000000D+00  0.00000000D+00  0.00000000D+00
  0.00000000D+00  0.00000000D+00  0.00000000D+00  0.00000000D+00  0.00000000D+00
  0.00000000D+00  0.00000000D+00  0.00000000D+00  0.00000000D+00  0.00000000D+00
  0.00000000D+00  0.00000000D+00  0.00000000D+00  0.00000000D+00  0.00000000D+00
  0.00000000D+00  0.00000000D+00  0.00000000D+00  0.00000000D+00  0.00000000D+00
  0.00000000D+00  0.00000000D+00  0.00000000D+00  0.00000000D+00  0.00000000D+00
  0.00000000D+00  0.00000000D+00  0.00000000D+00  0.00000000D+00  0.00000000D+00
  0.00000000D+00  0.00000000D+00  0.00000000D+00  0.00000000D+00
MO    2     MO 0.0        OCC NO =    1.8595356  ORB. ENERGY =    0.000000
 -0.24028240D-01 -0.41589303D-01 -0.72857763D-01 -0.11781664D+00 -0.18103254D+00
 -0.25331281D+00 -0.31644848D+00 -0.30986160D+00 -0.19938844D+00 -0.14971622D-02
 -0.23702300D-02 -0.15706579D-01 -0.39092005D-01 -0.11526218D+00 -0.21360277D+00
 -0.31566714D+00 -0.28588458D-01  0.29119480D+00  0.13931152D+00  0.14193518D-02
 -0.99409222D-02  0.39737274D-02 -0.29564849D-02  0.95033578D-03  0.29012950D-03
  0.00000000D+00  0.00000000D+00  0.00000000D+00  0.00000000D+00  0.00000000D+00
  0.00000000D+00  0.00000000D+00  0.00000000D+00  0.00000000D+00  0.00000000D+00
  0.00000000D+00  0.00000000D+00  0.00000000D+00  0.00000000D+00  0.00000000D+00
  0.00000000D+00  0.00000000D+00  0.00000000D+00  0.00000000D+00  0.00000000D+00
  0.00000000D+00  0.00000000D+00  0.00000000D+00  0.00000000D+00  0.00000000D+00
  0.00000000D+00  0.00000000D+00  0.00000000D+00  0.00000000D+00  0.00000000D+00
  0.00000000D+00  0.00000000D+00  0.00000000D+00  0.00000000D+00  0.00000000D+00
  0.00000000D+00  0.00000000D+00  0.00000000D+00  0.00000000D+00 -0.36833814D-13
  0.51020431D-13 -0.14186617D-13 -0.52630205D-30 -0.18714532D-30 -0.10166861D-14
 -0.45039564D-13  0.64244053D-13 -0.19204488D-13  0.97953418D-31  0.46641367D-31
  0.31023666D-15 -0.12455202D-13  0.19148976D-13 -0.66937733D-14 -0.11464822D-31
 -0.62844404D-32  0.86671601D-16 -0.30220424D-15  0.82210735D-15 -0.51990311D-15
  0.13196151D-32  0.66753266D-33 -0.18775464D-18 -0.13829836D-13  0.15984783D-13
 -0.21549473D-14  0.12160849D-29  0.36003762D-30 -0.59562220D-14 -0.40011867D-13
  0.53627342D-13 -0.13615474D-13 -0.65531799D-29 -0.18526545D-29 -0.25295951D-13
  0.12874583D-15 -0.42364624D-13  0.42235878D-13 -0.98302844D-29 -0.29735739D-29
 -0.38458661D-13  0.40990781D-17  0.37430902D-17 -0.78421683D-17 -0.85064176D-34
 -0.37681376D-34  0.16109299D-18  0.00000000D+00  0.00000000D+00  0.00000000D+00
  0.00000000D+00  0.00000000D+00  0.00000000D+00  0.00000000D+00  0.00000000D+00
  0.00000000D+00  0.00000000D+00  0.00000000D+00  0.00000000D+00  0.00000000D+00
  0.00000000D+00  0.00000000D+00  0.00000000D+00  0.00000000D+00  0.00000000D+00
  0.00000000D+00  0.00000000D+00  0.00000000D+00  0.00000000D+00  0.00000000D+00
  0.00000000D+00  0.00000000D+00  0.00000000D+00  0.00000000D+00  0.00000000D+00
  0.00000000D+00  0.00000000D+00  0.00000000D+00  0.00000000D+00  0.00000000D+00
  0.00000000D+00  0.00000000D+00  0.00000000D+00  0.00000000D+00  0.00000000D+00
  0.00000000D+00  0.00000000D+00  0.00000000D+00  0.00000000D+00  0.00000000D+00
  0.00000000D+00  0.00000000D+00  0.00000000D+00  0.00000000D+00  0.00000000D+00
  0.00000000D+00  0.00000000D+00  0.00000000D+00  0.00000000D+00  0.00000000D+00
  0.00000000D+00  0.00000000D+00  0.00000000D+00  0.00000000D+00  0.00000000D+00
  0.00000000D+00  0.00000000D+00 -0.38748658D-15 -0.37877095D-14  0.11483459D-14
  0.38942694D-14 -0.24632288D-15  0.20274919D-32  0.14130251D-31  0.62590308D-32
  0.59060480D-31  0.11765736D-14 -0.31967976D-15  0.32959143D-15 -0.41138355D-32
 -0.63770564D-31 -0.25102750D-15  0.76495943D-16 -0.36227214D-16 -0.21956484D-15
  0.36946481D-16  0.60290306D-16  0.10337401D-33 -0.97481570D-33 -0.40442128D-33
 -0.39968550D-32 -0.23941082D-15 -0.21578021D-17 -0.14217700D-15  0.31433083D-34
  0.43217936D-32  0.63597969D-16  0.31551715D-13  0.17115751D-12 -0.97323556D-13
 -0.17590226D-12  0.35377308D-13  0.84784875D-30 -0.54208412D-31 -0.34303477D-31
 -0.58222623D-29 -0.91986734D-13  0.14234245D-13 -0.11494029D-12 -0.83641426D-30
  0.58403317D-29  0.34487837D-13 -0.56140159D-16  0.28381811D-16  0.16790605D-15
 -0.29138281D-16 -0.56559145D-16 -0.38269620D-32 -0.38029153D-34 -0.16171160D-34
  0.22339414D-31  0.16893490D-15  0.22694109D-17  0.17144882D-15  0.38323524D-32
 -0.22326737D-31 -0.56730619D-16  0.00000000D+00  0.00000000D+00  0.00000000D+00
  0.00000000D+00  0.00000000D+00  0.00000000D+00  0.00000000D+00  0.00000000D+00
  0.00000000D+00  0.00000000D+00  0.00000000D+00  0.00000000D+00  0.00000000D+00
  0.00000000D+00  0.00000000D+00  0.00000000D+00  0.00000000D+00  0.00000000D+00
  0.00000000D+00  0.00000000D+00  0.00000000D+00  0.00000000D+00  0.00000000D+00
  0.00000000D+00  0.00000000D+00  0.00000000D+00  0.00000000D+00  0.00000000D+00
  0.00000000D+00  0.00000000D+00  0.00000000D+00  0.00000000D+00  0.00000000D+00
  0.00000000D+00  0.00000000D+00  0.00000000D+00  0.00000000D+00  0.00000000D+00
  0.00000000D+00  0.00000000D+00  0.00000000D+00  0.00000000D+00
MO    3     MO 0.0        OCC NO =    0.0463800  ORB. ENERGY =    0.000000
  0.00000000D+00  0.00000000D+00  0.00000000D+00  0.00000000D+00  0.00000000D+00
  0.00000000D+00  0.00000000D+00  0.00000000D+00  0.00000000D+00  0.00000000D+00
  0.00000000D+00  0.00000000D+00  0.00000000D+00  0.00000000D+00  0.00000000D+00
  0.00000000D+00  0.00000000D+00  0.00000000D+00  0.00000000D+00  0.00000000D+00
  0.00000000D+00  0.00000000D+00  0.00000000D+00  0.00000000D+00  0.00000000D+00
  0.00000000D+00  0.00000000D+00  0.00000000D+00  0.00000000D+00  0.41491650D+00
  0.53477713D+00  0.57276199D+00  0.52608697D+00  0.00000000D+00  0.00000000D+00
  0.00000000D+00  0.00000000D+00  0.00000000D+00  0.62775014D+00  0.00000000D+00
  0.00000000D+00  0.26836748D+00  0.00000000D+00  0.00000000D+00  0.15730403D-01
  0.00000000D+00  0.00000000D+00 -0.81138796D-04  0.00000000D+00  0.00000000D+00
  0.70841518D-01  0.00000000D+00  0.00000000D+00  0.90055606D-01  0.00000000D+00
  0.00000000D+00  0.10871226D+00  0.00000000D+00  0.00000000D+00  0.58502445D-01
  0.00000000D+00  0.00000000D+00  0.13488976D-05  0.00000000D+00  0.00000000D+00
  0.00000000D+00  0.00000000D+00  0.00000000D+00  0.00000000D+00  0.00000000D+00
  0.00000000D+00  0.00000000D+00  0.00000000D+00  0.00000000D+00  0.00000000D+00
  0.00000000D+00  0.00000000D+00  0.00000000D+00  0.00000000D+00  0.00000000D+00
  0.00000000D+00  0.00000000D+00  0.00000000D+00  0.00000000D+00  0.00000000D+00
  0.00000000D+00  0.00000000D+00  0.00000000D+00  0.00000000D+00  0.00000000D+00
  0.00000000D+00  0.00000000D+00  0.00000000D+00  0.00000000D+00  0.00000000D+00
  0.00000000D+00  0.00000000D+00  0.00000000D+00  0.00000000D+00  0.00000000D+00
  0.00000000D+00  0.00000000D+00  0.00000000D+00  0.00000000D+00  0.00000000D+00
  0.00000000D+00  0.00000000D+00  0.00000000D+00  0.00000000D+00  0.00000000D+00
  0.00000000D+00  0.00000000D+00  0.00000000D+00 -0.20286887D-12  0.00000000D+00
  0.00000000D+00  0.37907504D-12  0.00000000D+00  0.00000000D+00  0.22953157D-12
  0.00000000D+00  0.00000000D+00  0.00000000D+00 -0.58221758D-13  0.00000000D+00
  0.00000000D+00  0.12119913D-12  0.00000000D+00  0.00000000D+00  0.53466139D-13
  0.00000000D+00  0.00000000D+00  0.00000000D+00 -0.77932628D-15  0.00000000D+00
  0.00000000D+00  0.88413380D-14  0.00000000D+00  0.00000000D+00 -0.65033591D-14
  0.00000000D+00  0.00000000D+00  0.00000000D+00 -0.34045628D-12  0.00000000D+00
  0.00000000D+00  0.70308785D-12  0.00000000D+00  0.00000000D+00  0.31828097D-12
  0.00000000D+00  0.00000000D+00  0.00000000D+00  0.13606507D-12  0.00000000D+00
  0.00000000D+00 -0.48114389D-12  0.00000000D+00  0.00000000D+00  0.72948686D-13
  0.00000000D+00  0.00000000D+00  0.00000000D+00  0.37935309D-16  0.00000000D+00
  0.00000000D+00  0.60544058D-16  0.00000000D+00  0.00000000D+00 -0.17434999D-15
  0.00000000D+00  0.00000000D+00  0.00000000D+00  0.00000000D+00  0.00000000D+00
  0.00000000D+00  0.00000000D+00  0.00000000D+00  0.00000000D+00  0.00000000D+00
  0.00000000D+00  0.00000000D+00  0.00000000D+00  0.00000000D+00  0.00000000D+00
  0.00000000D+00  0.00000000D+00  0.00000000D+00  0.00000000D+00  0.00000000D+00
  0.00000000D+00  0.00000000D+00  0.00000000D+00  0.00000000D+00  0.00000000D+00
  0.00000000D+00  0.00000000D+00  0.00000000D+00  0.00000000D+00  0.00000000D+00
  0.00000000D+00  0.00000000D+00  0.00000000D+00  0.00000000D+00  0.00000000D+00
  0.00000000D+00  0.00000000D+00  0.00000000D+00  0.00000000D+00  0.00000000D+00
  0.00000000D+00  0.00000000D+00  0.00000000D+00  0.00000000D+00  0.00000000D+00
  0.00000000D+00  0.00000000D+00  0.00000000D+00  0.00000000D+00  0.00000000D+00
  0.00000000D+00  0.00000000D+00  0.00000000D+00  0.00000000D+00  0.00000000D+00
  0.00000000D+00  0.00000000D+00  0.00000000D+00  0.00000000D+00  0.00000000D+00
  0.00000000D+00  0.00000000D+00  0.00000000D+00 -0.49157896D-16  0.00000000D+00
  0.19160104D-14  0.00000000D+00 -0.30274040D-15  0.00000000D+00  0.00000000D+00
  0.00000000D+00  0.00000000D+00  0.00000000D+00  0.00000000D+00 -0.54530839D-14
  0.00000000D+00  0.11113936D-14  0.00000000D+00  0.00000000D+00  0.00000000D+00
  0.00000000D+00  0.35315052D-15  0.00000000D+00  0.00000000D+00  0.47111656D-18
  0.00000000D+00 -0.30248121D-15  0.00000000D+00  0.30364701D-16  0.00000000D+00
  0.00000000D+00  0.00000000D+00  0.00000000D+00  0.00000000D+00  0.00000000D+00
  0.90461692D-15  0.00000000D+00 -0.11658043D-17  0.00000000D+00  0.00000000D+00
  0.00000000D+00  0.00000000D+00 -0.15018658D-15  0.00000000D+00
MO    4     MO 0.0        OCC NO =    0.0463800  ORB. ENERGY =    0.000000
  0.00000000D+00  0.00000000D+00  0.00000000D+00  0.00000000D+00  0.00000000D+00
  0.00000000D+00  0.00000000D+00  0.00000000D+00  0.00000000D+00  0.00000000D+00
  0.00000000D+00  0.00000000D+00  0.00000000D+00  0.00000000D+00  0.00000000D+00
  0.00000000D+00  0.00000000D+00  0.00000000D+00  0.00000000D+00  0.00000000D+00
  0.00000000D+00  0.00000000D+00  0.00000000D+00  0.00000000D+00  0.00000000D+00
  0.00000000D+00  0.00000000D+00  0.00000000D+00  0.00000000D+00  0.00000000D+00
  0.00000000D+00  0.00000000D+00  0.00000000D+00  0.41491650D+00  0.53477713D+00
  0.57276199D+00  0.52608697D+00  0.00000000D+00  0.00000000D+00  0.62775014D+00
  0.00000000D+00  0.00000000D+00  0.26836748D+00  0.00000000D+00  0.00000000D+00
  0.15730403D-01  0.00000000D+00  0.00000000D+00 -0.81138796D-04  0.00000000D+00
  0.00000000D+00  0.70841518D-01  0.00000000D+00  0.00000000D+00  0.90055606D-01
  0.00000000D+00  0.00000000D+00  0.10871226D+00  0.00000000D+00  0.00000000D+00
  0.58502445D-01  0.00000000D+00  0.00000000D+00  0.13488976D-05  0.00000000D+00
  0.00000000D+00  0.00000000D+00  0.00000000D+00  0.00000000D+00  0.00000000D+00
  0.00000000D+00  0.00000000D+00  0.00000000D+00  0.00000000D+00  0.00000000D+00
  0.00000000D+00  0.00000000D+00  0.00000000D+00  0.00000000D+00  0.00000000D+00
  0.00000000D+00  0.00000000D+00  0.00000000D+00  0.00000000D+00  0.00000000D+00
  0.00000000D+00  0.00000000D+00  0.00000000D+00  0.00000000D+00  0.00000000D+00
  0.00000000D+00  0.00000000D+00  0.00000000D+00  0.00000000D+00  0.00000000D+00
  0.00000000D+00  0.00000000D+00  0.00000000D+00  0.00000000D+00  0.00000000D+00
  0.00000000D+00  0.00000000D+00  0.00000000D+00  0.00000000D+00  0.00000000D+00
  0.00000000D+00  0.00000000D+00  0.00000000D+00  0.00000000D+00  0.00000000D+00
  0.00000000D+00  0.00000000D+00  0.00000000D+00  0.00000000D+00  0.50233796D-13
  0.00000000D+00  0.00000000D+00  0.21985744D-12  0.00000000D+00  0.00000000D+00
 -0.37055883D-12  0.00000000D+00  0.00000000D+00  0.00000000D+00  0.90742073D-14
  0.00000000D+00  0.00000000D+00  0.78342122D-13  0.00000000D+00  0.00000000D+00
 -0.10556474D-12  0.00000000D+00  0.00000000D+00  0.00000000D+00 -0.41550805D-14
  0.00000000D+00  0.00000000D+00  0.10800338D-13  0.00000000D+00  0.00000000D+00
  0.16649036D-14  0.00000000D+00  0.00000000D+00  0.00000000D+00  0.79912419D-13
  0.00000000D+00  0.00000000D+00  0.40148195D-12  0.00000000D+00  0.00000000D+00
 -0.64121921D-12  0.00000000D+00  0.00000000D+00  0.00000000D+00 -0.41215161D-13
  0.00000000D+00  0.00000000D+00  0.18616429D-12  0.00000000D+00  0.00000000D+00
 -0.62518813D-13  0.00000000D+00  0.00000000D+00  0.00000000D+00 -0.85343807D-16
  0.00000000D+00  0.00000000D+00  0.15407370D-15  0.00000000D+00  0.00000000D+00
  0.10195772D-15  0.00000000D+00  0.00000000D+00  0.00000000D+00  0.00000000D+00
  0.00000000D+00  0.00000000D+00  0.00000000D+00  0.00000000D+00  0.00000000D+00
  0.00000000D+00  0.00000000D+00  0.00000000D+00  0.00000000D+00  0.00000000D+00
  0.00000000D+00  0.00000000D+00  0.00000000D+00  0.00000000D+00  0.00000000D+00
  0.00000000D+00  0.00000000D+00  0.00000000D+00  0.00000000D+00  0.00000000D+00
  0.00000000D+00  0.00000000D+00  0.00000000D+00  0.00000000D+00  0.00000000D+00
  0.00000000D+00  0.00000000D+00  0.00000000D+00  0.00000000D+00  0.00000000D+00
  0.00000000D+00  0.00000000D+00  0.00000000D+00  0.00000000D+00  0.00000000D+00
  0.00000000D+00  0.00000000D+00  0.00000000D+00  0.00000000D+00  0.00000000D+00
  0.00000000D+00  0.00000000D+00  0.00000000D+00  0.00000000D+00  0.00000000D+00
  0.00000000D+00  0.00000000D+00  0.00000000D+00  0.00000000D+00  0.00000000D+00
  0.00000000D+00  0.00000000D+00  0.00000000D+00  0.00000000D+00  0.00000000D+00
  0.00000000D+00  0.00000000D+00 -0.48236831D-15  0.00000000D+00  0.25945996D-14
  0.00000000D+00 -0.12095619D-15  0.00000000D+00  0.00000000D+00  0.00000000D+00
  0.00000000D+00  0.00000000D+00  0.00000000D+00  0.22290835D-14  0.00000000D+00
 -0.70580616D-14  0.00000000D+00  0.00000000D+00  0.00000000D+00  0.00000000D+00
  0.61801835D-16  0.00000000D+00  0.00000000D+00  0.15184569D-16  0.00000000D+00
 -0.12290174D-15  0.00000000D+00 -0.75601967D-16  0.00000000D+00  0.00000000D+00
  0.00000000D+00  0.00000000D+00  0.00000000D+00  0.00000000D+00 -0.28943951D-16
  0.00000000D+00  0.82231703D-15  0.00000000D+00  0.00000000D+00  0.00000000D+00
  0.00000000D+00 -0.12258086D-15  0.00000000D+00  0.00000000D+00
MO    5     MO 0.0        OCC NO =    0.0463800  ORB. ENERGY =    0.000000
  0.00000000D+00  0.00000000D+00  0.00000000D+00  0.00000000D+00  0.00000000D+00
  0.00000000D+00  0.00000000D+00  0.00000000D+00  0.00000000D+00  0.00000000D+00
  0.00000000D+00  0.00000000D+00  0.00000000D+00  0.00000000D+00  0.00000000D+00
  0.00000000D+00  0.00000000D+00  0.00000000D+00  0.00000000D+00  0.00000000D+00
  0.00000000D+00  0.00000000D+00  0.00000000D+00  0.00000000D+00  0.00000000D+00
  0.41491650D+00  0.53477713D+00  0.57276199D+00  0.52608697D+00  0.00000000D+00
  0.00000000D+00  0.00000000D+00  0.00000000D+00  0.00000000D+00  0.00000000D+00
  0.00000000D+00  0.00000000D+00  0.62775014D+00  0.00000000D+00  0.00000000D+00
  0.26836748D+00  0.00000000D+00  0.00000000D+00  0.15730403D-01  0.00000000D+00
  0.00000000D+00 -0.81138796D-04  0.00000000D+00  0.00000000D+00  0.70841518D-01
  0.00000000D+00  0.00000000D+00  0.90055606D-01  0.00000000D+00  0.00000000D+00
  0.10871226D+00  0.00000000D+00  0.00000000D+00  0.58502445D-01  0.00000000D+00
  0.00000000D+00  0.13488976D-05  0.00000000D+00  0.00000000D+00  0.00000000D+00
  0.00000000D+00  0.00000000D+00  0.00000000D+00  0.00000000D+00  0.00000000D+00
  0.00000000D+00  0.00000000D+00  0.00000000D+00  0.00000000D+00  0.00000000D+00
  0.00000000D+00  0.00000000D+00  0.00000000D+00  0.00000000D+00  0.00000000D+00
  0.00000000D+00  0.00000000D+00  0.00000000D+00  0.00000000D+00  0.00000000D+00
  0.00000000D+00  0.00000000D+00  0.00000000D+00  0.00000000D+00  0.00000000D+00
  0.00000000D+00  0.00000000D+00  0.00000000D+00  0.00000000D+00  0.00000000D+00
  0.00000000D+00  0.00000000D+00  0.00000000D+00  0.00000000D+00  0.00000000D+00
  0.00000000D+00  0.00000000D+00  0.00000000D+00  0.00000000D+00  0.00000000D+00
  0.00000000D+00  0.00000000D+00  0.00000000D+00  0.00000000D+00  0.00000000D+00
  0.00000000D+00  0.00000000D+00  0.15326510D-12  0.00000000D+00  0.00000000D+00
 -0.44377808D-12  0.00000000D+00  0.00000000D+00 -0.16017211D-13  0.00000000D+00
  0.00000000D+00  0.00000000D+00  0.49787791D-13  0.00000000D+00  0.00000000D+00
 -0.13217630D-12  0.00000000D+00  0.00000000D+00 -0.17187077D-13  0.00000000D+00
  0.00000000D+00  0.00000000D+00  0.46435031D-14  0.00000000D+00  0.00000000D+00
 -0.34828954D-14  0.00000000D+00  0.00000000D+00 -0.10447614D-13  0.00000000D+00
  0.00000000D+00  0.00000000D+00  0.26649400D-12  0.00000000D+00  0.00000000D+00
 -0.76436489D-12  0.00000000D+00  0.00000000D+00 -0.35117108D-13  0.00000000D+00
  0.00000000D+00  0.00000000D+00  0.23283824D-12  0.00000000D+00  0.00000000D+00
 -0.77628188D-12  0.00000000D+00  0.00000000D+00  0.77767173D-13  0.00000000D+00
  0.00000000D+00  0.00000000D+00  0.49973539D-16  0.00000000D+00  0.00000000D+00
 -0.93265844D-17  0.00000000D+00  0.00000000D+00 -0.14059403D-15  0.00000000D+00
  0.00000000D+00  0.00000000D+00  0.00000000D+00  0.00000000D+00  0.00000000D+00
  0.00000000D+00  0.00000000D+00  0.00000000D+00  0.00000000D+00  0.00000000D+00
  0.00000000D+00  0.00000000D+00  0.00000000D+00  0.00000000D+00  0.00000000D+00
  0.00000000D+00  0.00000000D+00  0.00000000D+00  0.00000000D+00  0.00000000D+00
  0.00000000D+00  0.00000000D+00  0.00000000D+00  0.00000000D+00  0.00000000D+00
  0.00000000D+00  0.00000000D+00  0.00000000D+00  0.00000000D+00  0.00000000D+00
  0.00000000D+00  0.00000000D+00  0.00000000D+00  0.00000000D+00  0.00000000D+00
  0.00000000D+00  0.00000000D+00  0.00000000D+00  0.00000000D+00  0.00000000D+00
  0.00000000D+00  0.00000000D+00  0.00000000D+00  0.00000000D+00  0.00000000D+00
  0.00000000D+00  0.00000000D+00  0.00000000D+00  0.00000000D+00  0.00000000D+00
  0.00000000D+00  0.00000000D+00  0.00000000D+00  0.00000000D+00  0.00000000D+00
  0.00000000D+00  0.00000000D+00  0.00000000D+00  0.00000000D+00  0.00000000D+00
  0.00000000D+00  0.00000000D+00  0.00000000D+00  0.00000000D+00  0.00000000D+00
  0.00000000D+00  0.00000000D+00  0.00000000D+00  0.96151030D-15  0.00000000D+00
 -0.42089752D-14  0.00000000D+00 -0.49122978D-15  0.00000000D+00  0.00000000D+00
  0.00000000D+00  0.00000000D+00 -0.52002888D-15  0.00000000D+00  0.23854513D-14
  0.00000000D+00  0.00000000D+00 -0.18654224D-15  0.00000000D+00  0.00000000D+00
  0.00000000D+00  0.00000000D+00  0.00000000D+00  0.00000000D+00 -0.41400839D-16
  0.00000000D+00  0.42983503D-15  0.00000000D+00 -0.55939501D-17  0.00000000D+00
  0.00000000D+00  0.00000000D+00  0.00000000D+00 -0.60476664D-16  0.00000000D+00
 -0.13209044D-15  0.00000000D+00  0.00000000D+00  0.19256711D-16
MO    6     MO 0.0        OCC NO =    0.0009823  ORB. ENERGY =    0.000000
  0.99128113D-01  0.17157599D+00  0.30057351D+00  0.48605063D+00  0.74684681D+00
  0.10450379D+01  0.13055030D+01  0.12783290D+01  0.82257375D+00  0.81373832D-03
  0.12882685D-02  0.85368472D-02  0.21247305D-01  0.62647354D-01  0.11609748D+00
  0.17157155D+00 -0.84440137D+00 -0.38003832D+00  0.29985538D+00  0.23426372D-02
 -0.93009708D+00  0.10086726D+01  0.83560670D+00  0.46918448D+00  0.11769673D-02
  0.00000000D+00  0.00000000D+00  0.00000000D+00  0.00000000D+00  0.00000000D+00