 Title Card Required
GAUSSIAN             75 MOL ORBITALS    274 PRIMITIVES        1 NUCLEI
  C    1    (CENTRE  1)   0.00000000  0.00000000  0.00000000  CHARGE =  6.0
CENTRE ASSIGNMENTS    1  1  1  1  1  1  1  1  1  1  1  1  1  1  1  1  1  1  1  1
CENTRE ASSIGNMENTS    1  1  1  1  1  1  1  1  1  1  1  1  1  1  1  1  1  1  1  1
CENTRE ASSIGNMENTS    1  1  1  1  1  1  1  1  1  1  1  1  1  1  1  1  1  1  1  1
CENTRE ASSIGNMENTS    1  1  1  1  1  1  1  1  1  1  1  1  1  1  1  1  1  1  1  1
CENTRE ASSIGNMENTS    1  1  1  1  1  1  1  1  1  1  1  1  1  1  1  1  1  1  1  1
CENTRE ASSIGNMENTS    1  1  1  1  1  1  1  1  1  1  1  1  1  1  1  1  1  1  1  1
CENTRE ASSIGNMENTS    1  1  1  1  1  1  1  1  1  1  1  1  1  1  1  1  1  1  1  1
CENTRE ASSIGNMENTS    1  1  1  1  1  1  1  1  1  1  1  1  1  1  1  1  1  1  1  1
CENTRE ASSIGNMENTS    1  1  1  1  1  1  1  1  1  1  1  1  1  1  1  1  1  1  1  1
CENTRE ASSIGNMENTS    1  1  1  1  1  1  1  1  1  1  1  1  1  1  1  1  1  1  1  1
CENTRE ASSIGNMENTS    1  1  1  1  1  1  1  1  1  1  1  1  1  1  1  1  1  1  1  1
CENTRE ASSIGNMENTS    1  1  1  1  1  1  1  1  1  1  1  1  1  1  1  1  1  1  1  1
CENTRE ASSIGNMENTS    1  1  1  1  1  1  1  1  1  1  1  1  1  1  1  1  1  1  1  1
CENTRE ASSIGNMENTS    1  1  1  1  1  1  1  1  1  1  1  1  1  1
TYPE ASSIGNMENTS      1  1  1  1  1  1  1  1  1  1  1  1  1  1  1  1  1  1  1  1
TYPE ASSIGNMENTS      1  1  1  1  1  2  2  2  2  3  3  3  3  4  4  4  4  2  3  4
TYPE ASSIGNMENTS      2  3  4  2  3  4  2  3  4  2  3  4  2  3  4  2  3  4  2  3
TYPE ASSIGNMENTS      4  2  3  4  5  6  7  8  9 10  5  6  7  8  9 10  5  6  7  8
TYPE ASSIGNMENTS      9 10  5  6  7  8  9 10  5  6  7  8  9 10  5  6  7  8  9 10
TYPE ASSIGNMENTS      5  6  7  8  9 10  5  6  7  8  9 10 11 12 13 17 14 15 18 19
TYPE ASSIGNMENTS     16 20 11 12 13 17 14 15 18 19 16 20 11 12 13 17 14 15 18 19
TYPE ASSIGNMENTS     16 20 11 12 13 17 14 15 18 19 16 20 11 12 13 17 14 15 18 19
TYPE ASSIGNMENTS     16 20 11 12 13 17 14 15 18 19 16 20 23 29 32 27 22 28 35 34
TYPE ASSIGNMENTS     26 31 33 30 25 24 21 23 29 32 27 22 28 35 34 26 31 33 30 25
TYPE ASSIGNMENTS     24 21 23 29 32 27 22 28 35 34 26 31 33 30 25 24 21 23 29 32
TYPE ASSIGNMENTS     27 22 28 35 34 26 31 33 30 25 24 21 36 37 38 39 40 41 42 43
TYPE ASSIGNMENTS     44 45 46 47 48 49 50 51 52 53 54 55 56 36 37 38 39 40 41 42
TYPE ASSIGNMENTS     43 44 45 46 47 48 49 50 51 52 53 54 55 56
EXPONENTS  0.9677000D+05 0.1450000D+05 0.3300000D+04 0.9358000D+03 0.3062000D+03
EXPONENTS  0.1113000D+03 0.4390000D+02 0.1840000D+02 0.8054000D+01 0.9358000D+03
EXPONENTS  0.3062000D+03 0.1113000D+03 0.4390000D+02 0.1840000D+02 0.8054000D+01
EXPONENTS  0.3637000D+01 0.1656000D+01 0.6333000D+00 0.2545000D+00 0.1019000D+00
EXPONENTS  0.7967000D+01 0.1745200D+02 0.3822600D+02 0.8373100D+02 0.3940000D-01
EXPONENTS  0.1018000D+03 0.2404000D+02 0.7571000D+01 0.2732000D+01 0.1018000D+03
EXPONENTS  0.2404000D+02 0.7571000D+01 0.2732000D+01 0.1018000D+03 0.2404000D+02
EXPONENTS  0.7571000D+01 0.2732000D+01 0.1085000D+01 0.1085000D+01 0.1085000D+01
EXPONENTS  0.4496000D+00 0.4496000D+00 0.4496000D+00 0.1876000D+00 0.1876000D+00
EXPONENTS  0.1876000D+00 0.7606000D-01 0.7606000D-01 0.7606000D-01 0.6080000D+01
EXPONENTS  0.6080000D+01 0.6080000D+01 0.1535800D+02 0.1535800D+02 0.1535800D+02
EXPONENTS  0.3879900D+02 0.3879900D+02 0.3879900D+02 0.9801700D+02 0.9801700D+02
EXPONENTS  0.9801700D+02 0.2720000D-01 0.2720000D-01 0.2720000D-01 0.3134000D+01
EXPONENTS  0.3134000D+01 0.3134000D+01 0.3134000D+01 0.3134000D+01 0.3134000D+01
EXPONENTS  0.1233000D+01 0.1233000D+01 0.1233000D+01 0.1233000D+01 0.1233000D+01
EXPONENTS  0.1233000D+01 0.4850000D+00 0.4850000D+00 0.4850000D+00 0.4850000D+00
EXPONENTS  0.4850000D+00 0.4850000D+00 0.1910000D+00 0.1910000D+00 0.1910000D+00
EXPONENTS  0.1910000D+00 0.1910000D+00 0.1910000D+00 0.7591000D+01 0.7591000D+01
EXPONENTS  0.7591000D+01 0.7591000D+01 0.7591000D+01 0.7591000D+01 0.2141900D+02
EXPONENTS  0.2141900D+02 0.2141900D+02 0.2141900D+02 0.2141900D+02 0.2141900D+02
EXPONENTS  0.6043900D+02 0.6043900D+02 0.6043900D+02 0.6043900D+02 0.6043900D+02
EXPONENTS  0.6043900D+02 0.7010000D-01 0.7010000D-01 0.7010000D-01 0.7010000D-01
EXPONENTS  0.7010000D-01 0.7010000D-01 0.2006000D+01 0.2006000D+01 0.2006000D+01
EXPONENTS  0.2006000D+01 0.2006000D+01 0.2006000D+01 0.2006000D+01 0.2006000D+01
EXPONENTS  0.2006000D+01 0.2006000D+01 0.8380000D+00 0.8380000D+00 0.8380000D+00
EXPONENTS  0.8380000D+00 0.8380000D+00 0.8380000D+00 0.8380000D+00 0.8380000D+00
EXPONENTS  0.8380000D+00 0.8380000D+00 0.3500000D+00 0.3500000D+00 0.3500000D+00
EXPONENTS  0.3500000D+00 0.3500000D+00 0.3500000D+00 0.3500000D+00 0.3500000D+00
EXPONENTS  0.3500000D+00 0.3500000D+00 0.6698000D+01 0.6698000D+01 0.6698000D+01
EXPONENTS  0.6698000D+01 0.6698000D+01 0.6698000D+01 0.6698000D+01 0.6698000D+01
EXPONENTS  0.6698000D+01 0.6698000D+01 0.2439800D+02 0.2439800D+02 0.2439800D+02
EXPONENTS  0.2439800D+02 0.2439800D+02 0.2439800D+02 0.2439800D+02 0.2439800D+02
EXPONENTS  0.2439800D+02 0.2439800D+02 0.1380000D+00 0.1380000D+00 0.1380000D+00
EXPONENTS  0.1380000D+00 0.1380000D+00 0.1380000D+00 0.1380000D+00 0.1380000D+00
EXPONENTS  0.1380000D+00 0.1380000D+00 0.1753000D+01 0.1753000D+01 0.1753000D+01
EXPONENTS  0.1753000D+01 0.1753000D+01 0.1753000D+01 0.1753000D+01 0.1753000D+01
EXPONENTS  0.1753000D+01 0.1753000D+01 0.1753000D+01 0.1753000D+01 0.1753000D+01
EXPONENTS  0.1753000D+01 0.1753000D+01 0.6780000D+00 0.6780000D+00 0.6780000D+00
EXPONENTS  0.6780000D+00 0.6780000D+00 0.6780000D+00 0.6780000D+00 0.6780000D+00
EXPONENTS  0.6780000D+00 0.6780000D+00 0.6780000D+00 0.6780000D+00 0.6780000D+00
EXPONENTS  0.6780000D+00 0.6780000D+00 0.7311000D+01 0.7311000D+01 0.7311000D+01
EXPONENTS  0.7311000D+01 0.7311000D+01 0.7311000D+01 0.7311000D+01 0.7311000D+01
EXPONENTS  0.7311000D+01 0.7311000D+01 0.7311000D+01 0.7311000D+01 0.7311000D+01
EXPONENTS  0.7311000D+01 0.7311000D+01 0.3190000D+00 0.3190000D+00 0.3190000D+00
EXPONENTS  0.3190000D+00 0.3190000D+00 0.3190000D+00 0.3190000D+00 0.3190000D+00
EXPONENTS  0.3190000D+00 0.3190000D+00 0.3190000D+00 0.3190000D+00 0.3190000D+00
EXPONENTS  0.3190000D+00 0.3190000D+00 0.1259000D+01 0.1259000D+01 0.1259000D+01
EXPONENTS  0.1259000D+01 0.1259000D+01 0.1259000D+01 0.1259000D+01 0.1259000D+01
EXPONENTS  0.1259000D+01 0.1259000D+01 0.1259000D+01 0.1259000D+01 0.1259000D+01
EXPONENTS  0.1259000D+01 0.1259000D+01 0.1259000D+01 0.1259000D+01 0.1259000D+01
EXPONENTS  0.1259000D+01 0.1259000D+01 0.1259000D+01 0.5860000D+00 0.5860000D+00
EXPONENTS  0.5860000D+00 0.5860000D+00 0.5860000D+00 0.5860000D+00 0.5860000D+00
EXPONENTS  0.5860000D+00 0.5860000D+00 0.5860000D+00 0.5860000D+00 0.5860000D+00
EXPONENTS  0.5860000D+00 0.5860000D+00 0.5860000D+00 0.5860000D+00 0.5860000D+00
EXPONENTS  0.5860000D+00 0.5860000D+00 0.5860000D+00 0.5860000D+00
MO    1     MO 0.0        OCC NO =    1.9984640  ORB. ENERGY =    0.000000
  0.10276977D+00  0.17787916D+00  0.31161565D+00  0.50390662D+00  0.77428365D+00
  0.10834293D+01  0.13534632D+01  0.13252908D+01  0.85279256D+00  0.26357596D-02
  0.41727986D-02  0.27651490D-01  0.68821618D-01  0.20291949D+00  0.37604846D+00
  0.55573316D+00  0.74893327D-01 -0.19468075D-03  0.13363154D-03 -0.29460099D-04
 -0.79515790D-03  0.10234255D-02  0.14193113D-02  0.64237666D-03  0.39252360D-05
  0.00000000D+00  0.00000000D+00  0.00000000D+00  0.00000000D+00  0.00000000D+00
  0.00000000D+00  0.00000000D+00  0.00000000D+00  0.00000000D+00  0.00000000D+00
  0.00000000D+00  0.00000000D+00  0.00000000D+00  0.00000000D+00  0.00000000D+00
  0.00000000D+00  0.00000000D+00  0.00000000D+00  0.00000000D+00  0.00000000D+00
  0.00000000D+00  0.00000000D+00  0.00000000D+00  0.00000000D+00  0.00000000D+00
  0.00000000D+00  0.00000000D+00  0.00000000D+00  0.00000000D+00  0.00000000D+00
  0.00000000D+00  0.00000000D+00  0.00000000D+00  0.00000000D+00  0.00000000D+00
  0.00000000D+00  0.00000000D+00  0.00000000D+00  0.00000000D+00  0.41396020D-14
 -0.10100039D-13  0.59604370D-14 -0.11407973D-30 -0.31787797D-31  0.49309338D-14
 -0.12217123D-14  0.14444680D-14 -0.22275564D-15  0.42483403D-31  0.12534439D-31
 -0.12271537D-14  0.15988543D-15 -0.21279859D-15  0.52913168D-16 -0.63488902D-32
 -0.17726510D-32  0.74720843D-17 -0.11084272D-16  0.24244450D-16 -0.13160178D-16
  0.37937634D-33  0.86728051D-34  0.11322027D-15  0.24456278D-14  0.51939261D-13
 -0.54384889D-13 -0.15981126D-30 -0.69636056D-31 -0.96376103D-14 -0.86611446D-13
 -0.18298193D-12  0.26959337D-12  0.52492131D-29  0.15766616D-29  0.22391408D-14
  0.41624617D-12  0.38766660D-12 -0.80391277D-12 -0.43482807D-28 -0.12294766D-28
  0.42610692D-13 -0.11430477D-17 -0.39725111D-18  0.15402989D-17  0.79091962D-34
  0.25969758D-34 -0.17627797D-16  0.00000000D+00  0.00000000D+00  0.00000000D+00
  0.00000000D+00  0.00000000D+00  0.00000000D+00  0.00000000D+00  0.00000000D+00
  0.00000000D+00  0.00000000D+00  0.00000000D+00  0.00000000D+00  0.00000000D+00
  0.00000000D+00  0.00000000D+00  0.00000000D+00  0.00000000D+00  0.00000000D+00
  0.00000000D+00  0.00000000D+00  0.00000000D+00  0.00000000D+00  0.00000000D+00
  0.00000000D+00  0.00000000D+00  0.00000000D+00  0.00000000D+00  0.00000000D+00
  0.00000000D+00  0.00000000D+00  0.00000000D+00  0.00000000D+00  0.00000000D+00
  0.00000000D+00  0.00000000D+00  0.00000000D+00  0.00000000D+00  0.00000000D+00
  0.00000000D+00  0.00000000D+00  0.00000000D+00  0.00000000D+00  0.00000000D+00
  0.00000000D+00  0.00000000D+00  0.00000000D+00  0.00000000D+00  0.00000000D+00
  0.00000000D+00  0.00000000D+00  0.00000000D+00  0.00000000D+00  0.00000000D+00
  0.00000000D+00  0.00000000D+00  0.00000000D+00  0.00000000D+00  0.00000000D+00
  0.00000000D+00  0.00000000D+00  0.21993807D-14 -0.20983613D-14 -0.54734269D-14
  0.26414789D-14  0.26432161D-14  0.80498682D-31  0.41932666D-31  0.16071372D-31
 -0.40031169D-30 -0.77228573D-14 -0.16293528D-14 -0.10385870D-13 -0.85855806D-31
  0.38633413D-30  0.30181212D-14 -0.10539882D-15  0.26451563D-15  0.17390314D-15
 -0.33298004D-15 -0.17172882D-15 -0.64212138D-32 -0.73979883D-32 -0.29272921D-32
  0.19833146D-31  0.45848981D-15  0.20539323D-15  0.85646979D-15  0.73969778D-32
 -0.17367150D-31 -0.21915993D-15 -0.49595033D-13  0.27978431D-13  0.10929812D-12
 -0.35220075D-13 -0.83174477D-13 -0.52452904D-29 -0.61766744D-30 -0.23119776D-30
  0.30061609D-28  0.18827208D-12  0.21724932D-13  0.38974874D-12  0.53223563D-29
 -0.29855720D-28 -0.96336803D-13  0.16693202D-16 -0.24128090D-16 -0.54582726D-16
  0.30373147D-16  0.26615913D-16  0.74579233D-33 -0.72775338D-34  0.11470493D-35
 -0.29109598D-32 -0.45576486D-16 -0.18735172D-16 -0.10511275D-15 -0.74617468D-33
  0.29352183D-32  0.25114873D-16  0.00000000D+00  0.00000000D+00  0.00000000D+00
  0.00000000D+00  0.00000000D+00  0.00000000D+00  0.00000000D+00  0.00000000D+00
  0.00000000D+00  0.00000000D+00  0.00000000D+00  0.00000000D+00  0.00000000D+00
  0.00000000D+00  0.00000000D+00  0.00000000D+00  0.00000000D+00  0.00000000D+00
  0.00000000D+00  0.00000000D+00  0.00000000D+00  0.00000000D+00  0.00000000D+00
  0.00000000D+00  0.00000000D+00  0.00000000D+00  0.00000000D+00  0.00000000D+00
  0.00000000D+00  0.00000000D+00  0.00000000D+00  0.00000000D+00  0.00000000D+00
  0.00000000D+00  0.00000000D+00  0.00000000D+00  0.00000000D+00  0.00000000D+00
  0.00000000D+00  0.00000000D+00  0.00000000D+00  0.00000000D+00
MO    2     MO 0.0        OCC NO =    0.0005636  ORB. ENERGY =    0.000000
  0.17214367D+00  0.29795504D+00  0.52196926D+00  0.84406469D+00  0.12969575D+01
  0.18147895D+01  0.22671075D+01  0.22199176D+01  0.14284632D+01 -0.64044790D-02
 -0.10139240D-01 -0.67188747D-01 -0.16722565D+00 -0.49306227D+00 -0.91373827D+00
 -0.13503437D+01 -0.24232864D+00  0.17621633D-02 -0.71715835D-03  0.15820389D-03
 -0.89290829D+00  0.21164040D+01  0.21279310D+01  0.97225713D+00 -0.21149814D-04
  0.00000000D+00  0.00000000D+00  0.00000000D+00  0.00000000D+00  0.00000000D+00
  0.00000000D+00  0.00000000D+00  0.00000000D+00  0.00000000D+00  0.00000000D+00
  0.00000000D+00  0.00000000D+00  0.00000000D+00  0.00000000D+00  0.00000000D+00
  0.00000000D+00  0.00000000D+00  0.00000000D+00  0.00000000D+00  0.00000000D+00
  0.00000000D+00  0.00000000D+00  0.00000000D+00  0.00000000D+00  0.00000000D+00
  0.00000000D+00  0.00000000D+00  0.00000000D+00  0.00000000D+00  0.00000000D+00
  0.00000000D+00  0.00000000D+00  0.00000000D+00  0.00000000D+00  0.00000000D+00
  0.00000000D+00  0.00000000D+00  0.00000000D+00  0.00000000D+00  0.70214725D-13
 -0.61656531D-13 -0.85581938D-14  0.17908175D-31  0.49899197D-32  0.82741017D-14
 -0.10050976D-13  0.81881751D-14  0.18628012D-14 -0.66688498D-32 -0.19675733D-32
 -0.24099545D-14  0.97827210D-15 -0.10905735D-14  0.11230142D-15  0.99661912D-33
  0.27825982D-33 -0.79758109D-16 -0.45450653D-16  0.88268655D-16 -0.42818002D-16
 -0.59552771D-34 -0.13613940D-34  0.22735034D-15 -0.18836257D-12  0.14342371D-12
  0.44938858D-13  0.25117939D-31  0.10947388D-31 -0.92315753D-14 -0.58665466D-13
 -0.48517848D-12  0.54384394D-12 -0.82305776D-30 -0.24721060D-30 -0.25216048D-13
  0.34154942D-12  0.68869888D-12 -0.10302483D-11  0.68306597D-29  0.19313382D-29
 -0.31285428D-13  0.11964625D-17 -0.82567759D-17  0.70603135D-17 -0.12415460D-34
 -0.40766163D-35 -0.34313225D-16  0.00000000D+00  0.00000000D+00  0.00000000D+00
  0.00000000D+00  0.00000000D+00  0.00000000D+00  0.00000000D+00  0.00000000D+00
  0.00000000D+00  0.00000000D+00  0.00000000D+00  0.00000000D+00  0.00000000D+00
  0.00000000D+00  0.00000000D+00  0.00000000D+00  0.00000000D+00  0.00000000D+00
  0.00000000D+00  0.00000000D+00  0.00000000D+00  0.00000000D+00  0.00000000D+00
  0.00000000D+00  0.00000000D+00  0.00000000D+00  0.00000000D+00  0.00000000D+00
  0.00000000D+00  0.00000000D+00  0.00000000D+00  0.00000000D+00  0.00000000D+00
  0.00000000D+00  0.00000000D+00  0.00000000D+00  0.00000000D+00  0.00000000D+00
  0.00000000D+00  0.00000000D+00  0.00000000D+00  0.00000000D+00  0.00000000D+00
  0.00000000D+00  0.00000000D+00  0.00000000D+00  0.00000000D+00  0.00000000D+00
  0.00000000D+00  0.00000000D+00  0.00000000D+00  0.00000000D+00  0.00000000D+00
  0.00000000D+00  0.00000000D+00  0.00000000D+00  0.00000000D+00  0.00000000D+00
  0.00000000D+00  0.00000000D+00  0.10226320D-12 -0.40149689D-14 -0.30478378D-12
  0.50322770D-14  0.10715153D-12 -0.12636569D-31 -0.65824089D-32 -0.25228143D-32
  0.62840589D-31 -0.30879544D-12 -0.30519242D-14 -0.33812542D-12  0.13477507D-31
 -0.60646453D-31  0.10782014D-12  0.84915118D-14  0.54512208D-15 -0.25217747D-13
 -0.67323157D-15  0.77439239D-14  0.10079840D-32  0.11613010D-32  0.45951236D-33
 -0.31133871D-32 -0.25731324D-13  0.38432849D-15 -0.21245796D-13 -0.11611547D-32
  0.27262867D-32  0.78295200D-14 -0.79485766D-12  0.40143221D-13  0.20672397D-11
 -0.59014432D-13 -0.94884002D-12  0.82345475D-30  0.96964953D-31  0.36294726D-31
 -0.47193562D-29  0.27019062D-11  0.56613634D-13  0.36258004D-11 -0.83555299D-30
  0.46870345D-29 -0.10546178D-11 -0.20373142D-14 -0.51481898D-16  0.61355953D-14
  0.63253585D-16 -0.19945369D-14 -0.11707158D-33  0.11423847D-34 -0.18008332D-36
  0.45695259D-33  0.60882901D-14 -0.35315062D-16  0.58316259D-14  0.11713161D-33
 -0.46076054D-33 -0.19866527D-14  0.00000000D+00  0.00000000D+00  0.00000000D+00
  0.00000000D+00  0.00000000D+00  0.00000000D+00  0.00000000D+00  0.00000000D+00
  0.00000000D+00  0.00000000D+00  0.00000000D+00  0.00000000D+00  0.00000000D+00
  0.00000000D+00  0.00000000D+00  0.00000000D+00  0.00000000D+00  0.00000000D+00
  0.00000000D+00  0.00000000D+00  0.00000000D+00  0.00000000D+00  0.00000000D+00
  0.00000000D+00  0.00000000D+00  0.00000000D+00  0.00000000D+00  0.00000000D+00
  0.00000000D+00  0.00000000D+00  0.00000000D+00  0.00000000D+00  0.00000000D+00
  0.00000000D+00  0.00000000D+00  0.00000000D+00  0.00000000D+00  0.00000000D+00
  0.00000000D+00  0.00000000D+00  0.00000000D+00  0.00000000D+00
MO    3     MO 0.0        OCC NO =    0.0002874  ORB. ENERGY =    0.000000
  0.00000000D+00  0.00000000D+00  0.00000000D+00  0.00000000D+00  0.00000000D+00
  0.00000000D+00  0.00000000D+00  0.00000000D+00  0.00000000D+00  0.00000000D+00
  0.00000000D+00  0.00000000D+00  0.00000000D+00  0.00000000D+00  0.00000000D+00
  0.00000000D+00  0.00000000D+00  0.00000000D+00  0.00000000D+00  0.00000000D+00
  0.00000000D+00  0.00000000D+00  0.00000000D+00  0.00000000D+00  0.00000000D+00
  0.00000000D+00  0.00000000D+00  0.00000000D+00  0.00000000D+00  0.15657768D+00
  0.20180967D+00  0.21614407D+00  0.19853025D+00  0.00000000D+00  0.00000000D+00
  0.00000000D+00  0.00000000D+00  0.00000000D+00  0.19626250D-01  0.00000000D+00
  0.00000000D+00 -0.37312737D-02  0.00000000D+00  0.00000000D+00  0.68222902D-03
  0.00000000D+00  0.00000000D+00 -0.96168941D-04  0.00000000D+00  0.00000000D+00
  0.55728490D+01  0.00000000D+00  0.00000000D+00  0.21645918D+02  0.00000000D+00
  0.00000000D+00  0.18881047D+02  0.00000000D+00  0.00000000D+00  0.10823160D+02
  0.00000000D+00  0.00000000D+00  0.74240082D-05  0.00000000D+00  0.00000000D+00
  0.00000000D+00  0.00000000D+00  0.00000000D+00  0.00000000D+00  0.00000000D+00
  0.00000000D+00  0.00000000D+00  0.00000000D+00  0.00000000D+00  0.00000000D+00
  0.00000000D+00  0.00000000D+00  0.00000000D+00  0.00000000D+00  0.00000000D+00
  0.00000000D+00  0.00000000D+00  0.00000000D+00  0.00000000D+00  0.00000000D+00
  0.00000000D+00  0.00000000D+00  0.00000000D+00  0.00000000D+00  0.00000000D+00
  0.00000000D+00  0.00000000D+00  0.00000000D+00  0.00000000D+00  0.00000000D+00
  0.00000000D+00  0.00000000D+00  0.00000000D+00  0.00000000D+00  0.00000000D+00
  0.00000000D+00  0.00000000D+00  0.00000000D+00  0.00000000D+00  0.00000000D+00
  0.00000000D+00  0.00000000D+00  0.00000000D+00  0.00000000D+00  0.00000000D+00
  0.00000000D+00  0.00000000D+00  0.00000000D+00 -0.10253308D-12  0.00000000D+00
  0.00000000D+00  0.15366960D-12  0.00000000D+00  0.00000000D+00  0.15392965D-12
  0.00000000D+00  0.00000000D+00  0.00000000D+00  0.76627206D-14  0.00000000D+00
  0.00000000D+00 -0.11236075D-13  0.00000000D+00  0.00000000D+00 -0.11752087D-13
  0.00000000D+00  0.00000000D+00  0.00000000D+00 -0.11967013D-14  0.00000000D+00
  0.00000000D+00  0.17296187D-14  0.00000000D+00  0.00000000D+00  0.18604853D-14
  0.00000000D+00  0.00000000D+00  0.00000000D+00  0.74507580D-13  0.00000000D+00
  0.00000000D+00 -0.57962516D-13  0.00000000D+00  0.00000000D+00 -0.16556022D-12
  0.00000000D+00  0.00000000D+00  0.00000000D+00 -0.35203942D-11  0.00000000D+00
  0.00000000D+00  0.55447256D-11  0.00000000D+00  0.00000000D+00  0.50164570D-11
  0.00000000D+00  0.00000000D+00  0.00000000D+00  0.12473592D-15  0.00000000D+00
  0.00000000D+00 -0.18021830D-15  0.00000000D+00  0.00000000D+00 -0.19398945D-15
  0.00000000D+00  0.00000000D+00  0.00000000D+00  0.00000000D+00  0.00000000D+00
  0.00000000D+00  0.00000000D+00  0.00000000D+00  0.00000000D+00  0.00000000D+00
  0.00000000D+00  0.00000000D+00  0.00000000D+00  0.00000000D+00  0.00000000D+00
  0.00000000D+00  0.00000000D+00  0.00000000D+00  0.00000000D+00  0.00000000D+00
  0.00000000D+00  0.00000000D+00  0.00000000D+00  0.00000000D+00  0.00000000D+00
  0.00000000D+00  0.00000000D+00  0.00000000D+00  0.00000000D+00  0.00000000D+00
  0.00000000D+00  0.00000000D+00  0.00000000D+00  0.00000000D+00  0.00000000D+00
  0.00000000D+00  0.00000000D+00  0.00000000D+00  0.00000000D+00  0.00000000D+00
  0.00000000D+00  0.00000000D+00  0.00000000D+00  0.00000000D+00  0.00000000D+00
  0.00000000D+00  0.00000000D+00  0.00000000D+00  0.00000000D+00  0.00000000D+00
  0.00000000D+00  0.00000000D+00  0.00000000D+00  0.00000000D+00  0.00000000D+00
  0.00000000D+00  0.00000000D+00  0.00000000D+00  0.00000000D+00  0.00000000D+00
  0.00000000D+00  0.00000000D+00  0.00000000D+00 -0.73125564D-14  0.00000000D+00
  0.25888583D-12  0.00000000D+00 -0.51983597D-13  0.00000000D+00  0.00000000D+00
  0.00000000D+00  0.00000000D+00  0.00000000D+00  0.00000000D+00 -0.73278215D-12
  0.00000000D+00  0.26095014D-12  0.00000000D+00  0.00000000D+00  0.00000000D+00
  0.00000000D+00 -0.83447102D-14  0.00000000D+00  0.00000000D+00  0.61885988D-14
  0.00000000D+00 -0.20655111D-13  0.00000000D+00  0.41191968D-14  0.00000000D+00
  0.00000000D+00  0.00000000D+00  0.00000000D+00  0.00000000D+00  0.00000000D+00
  0.24833740D-13  0.00000000D+00 -0.20536857D-13  0.00000000D+00  0.00000000D+00
  0.00000000D+00  0.00000000D+00  0.61294720D-14  0.00000000D+00
MO    4     MO 0.0        OCC NO =    0.0002874  ORB. ENERGY =    0.000000
  0.00000000D+00  0.00000000D+00  0.00000000D+00  0.00000000D+00  0.00000000D+00
  0.00000000D+00  0.00000000D+00  0.00000000D+00  0.00000000D+00  0.00000000D+00
  0.00000000D+00  0.00000000D+00  0.00000000D+00  0.00000000D+00  0.00000000D+00
  0.00000000D+00  0.00000000D+00  0.00000000D+00  0.00000000D+00  0.00000000D+00
  0.00000000D+00  0.00000000D+00  0.00000000D+00  0.00000000D+00  0.00000000D+00
  0.15657768D+00  0.20180967D+00  0.21614407D+00  0.19853025D+00  0.00000000D+00
  0.00000000D+00  0.00000000D+00  0.00000000D+00  0.00000000D+00  0.00000000D+00
  0.00000000D+00  0.00000000D+00  0.19626250D-01  0.00000000D+00  0.00000000D+00
 -0.37312737D-02  0.00000000D+00  0.00000000D+00  0.68222902D-03  0.00000000D+00
  0.00000000D+00 -0.96168941D-04  0.00000000D+00  0.00000000D+00  0.55728490D+01
  0.00000000D+00  0.00000000D+00  0.21645918D+02  0.00000000D+00  0.00000000D+00
  0.18881047D+02  0.00000000D+00  0.00000000D+00  0.10823160D+02  0.00000000D+00
  0.00000000D+00  0.74240082D-05  0.00000000D+00  0.00000000D+00  0.00000000D+00
  0.00000000D+00  0.00000000D+00  0.00000000D+00  0.00000000D+00  0.00000000D+00
  0.00000000D+00  0.00000000D+00  0.00000000D+00  0.00000000D+00  0.00000000D+00
  0.00000000D+00  0.00000000D+00  0.00000000D+00  0.00000000D+00  0.00000000D+00
  0.00000000D+00  0.00000000D+00  0.00000000D+00  0.00000000D+00  0.00000000D+00
  0.00000000D+00  0.00000000D+00  0.00000000D+00  0.00000000D+00  0.00000000D+00
  0.00000000D+00  0.00000000D+00  0.00000000D+00  0.00000000D+00  0.00000000D+00
  0.00000000D+00  0.00000000D+00  0.00000000D+00  0.00000000D+00  0.00000000D+00
  0.00000000D+00  0.00000000D+00  0.00000000D+00  0.00000000D+00  0.00000000D+00
  0.00000000D+00  0.00000000D+00  0.00000000D+00  0.00000000D+00  0.00000000D+00
  0.00000000D+00  0.00000000D+00 -0.10467639D-12  0.00000000D+00  0.00000000D+00
  0.15808001D-12  0.00000000D+00  0.00000000D+00  0.15594917D-12  0.00000000D+00
  0.00000000D+00  0.00000000D+00  0.78467505D-14  0.00000000D+00  0.00000000D+00
 -0.12311797D-13  0.00000000D+00  0.00000000D+00 -0.11228455D-13  0.00000000D+00
  0.00000000D+00  0.00000000D+00 -0.11900568D-14  0.00000000D+00  0.00000000D+00
  0.18174423D-14  0.00000000D+00  0.00000000D+00  0.17527280D-14  0.00000000D+00
  0.00000000D+00  0.00000000D+00  0.72381065D-13  0.00000000D+00  0.00000000D+00
 -0.92920554D-13  0.00000000D+00  0.00000000D+00 -0.12422264D-12  0.00000000D+00
  0.00000000D+00  0.00000000D+00 -0.41573697D-11  0.00000000D+00  0.00000000D+00
  0.69101111D-11  0.00000000D+00  0.00000000D+00  0.55619980D-11  0.00000000D+00
  0.00000000D+00  0.00000000D+00  0.12515271D-15  0.00000000D+00  0.00000000D+00
 -0.18438278D-15  0.00000000D+00  0.00000000D+00 -0.19107535D-15  0.00000000D+00
  0.00000000D+00  0.00000000D+00  0.00000000D+00  0.00000000D+00  0.00000000D+00
  0.00000000D+00  0.00000000D+00  0.00000000D+00  0.00000000D+00  0.00000000D+00
  0.00000000D+00  0.00000000D+00  0.00000000D+00  0.00000000D+00  0.00000000D+00
  0.00000000D+00  0.00000000D+00  0.00000000D+00  0.00000000D+00  0.00000000D+00
  0.00000000D+00  0.00000000D+00  0.00000000D+00  0.00000000D+00  0.00000000D+00
  0.00000000D+00  0.00000000D+00  0.00000000D+00  0.00000000D+00  0.00000000D+00
  0.00000000D+00  0.00000000D+00  0.00000000D+00  0.00000000D+00  0.00000000D+00
  0.00000000D+00  0.00000000D+00  0.00000000D+00  0.00000000D+00  0.00000000D+00
  0.00000000D+00  0.00000000D+00  0.00000000D+00  0.00000000D+00  0.00000000D+00
  0.00000000D+00  0.00000000D+00  0.00000000D+00  0.00000000D+00  0.00000000D+00
  0.00000000D+00  0.00000000D+00  0.00000000D+00  0.00000000D+00  0.00000000D+00
  0.00000000D+00  0.00000000D+00  0.00000000D+00  0.00000000D+00  0.00000000D+00
  0.00000000D+00  0.00000000D+00  0.00000000D+00  0.00000000D+00  0.00000000D+00
  0.00000000D+00  0.00000000D+00  0.00000000D+00 -0.78727402D-14  0.00000000D+00
 -0.73002954D-12  0.00000000D+00 -0.79306132D-14  0.00000000D+00  0.00000000D+00
  0.00000000D+00  0.00000000D+00  0.25908866D-12  0.00000000D+00  0.25920441D-12
  0.00000000D+00  0.00000000D+00 -0.51829307D-13  0.00000000D+00  0.00000000D+00
  0.00000000D+00  0.00000000D+00  0.00000000D+00  0.00000000D+00  0.61608341D-14
  0.00000000D+00  0.24983886D-13  0.00000000D+00  0.61583732D-14  0.00000000D+00
  0.00000000D+00  0.00000000D+00  0.00000000D+00 -0.20649630D-13  0.00000000D+00
 -0.20644709D-13  0.00000000D+00  0.00000000D+00  0.41294339D-14
MO    5     MO 0.0        OCC NO =    0.0002874  ORB. ENERGY =    0.000000
  0.00000000D+00  0.00000000D+00  0.00000000D+00  0.00000000D+00  0.00000000D+00
  0.00000000D+00  0.00000000D+00  0.00000000D+00  0.00000000D+00  0.00000000D+00
  0.00000000D+00  0.00000000D+00  0.00000000D+00  0.00000000D+00  0.00000000D+00
  0.00000000D+00  0.00000000D+00  0.00000000D+00  0.00000000D+00  0.00000000D+00
  0.00000000D+00  0.00000000D+00  0.00000000D+00  0.00000000D+00  0.00000000D+00
  0.00000000D+00  0.00000000D+00  0.00000000D+00  0.00000000D+00  0.00000000D+00
  0.00000000D+00  0.00000000D+00  0.00000000D+00  0.15657768D+00  0.20180967D+00
  0.21614407D+00  0.19853025D+00  0.00000000D+00  0.00000000D+00  0.19626250D-01
  0.00000000D+00  0.00000000D+00 -0.37312737D-02  0.00000000D+00  0.00000000D+00
  0.68222902D-03  0.00000000D+00  0.00000000D+00 -0.96168941D-04  0.00000000D+00
  0.00000000D+00  0.55728490D+01  0.00000000D+00  0.00000000D+00  0.21645918D+02
  0.00000000D+00  0.00000000D+00  0.18881047D+02  0.00000000D+00  0.00000000D+00
  0.10823160D+02  0.00000000D+00  0.00000000D+00  0.74240082D-05  0.00000000D+00
  0.00000000D+00  0.00000000D+00  0.00000000D+00  0.00000000D+00  0.00000000D+00
  0.00000000D+00  0.00000000D+00  0.00000000D+00  0.00000000D+00  0.00000000D+00
  0.00000000D+00  0.00000000D+00  0.00000000D+00  0.00000000D+00  0.00000000D+00
  0.00000000D+00  0.00000000D+00  0.00000000D+00  0.00000000D+00  0.00000000D+00
  0.00000000D+00  0.00000000D+00  0.00000000D+00  0.00000000D+00  0.00000000D+00
  0.00000000D+00  0.00000000D+00  0.00000000D+00  0.00000000D+00  0.00000000D+00
  0.00000000D+00  0.00000000D+00  0.00000000D+00  0.00000000D+00  0.00000000D+00
  0.00000000D+00  0.00000000D+00  0.00000000D+00  0.00000000D+00  0.00000000D+00
  0.00000000D+00  0.00000000D+00  0.00000000D+00  0.00000000D+00  0.00000000D+00
  0.00000000D+00  0.00000000D+00  0.00000000D+00  0.00000000D+00 -0.10321071D-12
  0.00000000D+00  0.00000000D+00  0.15510394D-12  0.00000000D+00  0.00000000D+00
  0.15452820D-12  0.00000000D+00  0.00000000D+00  0.00000000D+00  0.80807577D-14
  0.00000000D+00  0.00000000D+00 -0.12357455D-13  0.00000000D+00  0.00000000D+00
 -0.11884818D-13  0.00000000D+00  0.00000000D+00  0.00000000D+00 -0.11561894D-14
  0.00000000D+00  0.00000000D+00  0.17792431D-14  0.00000000D+00  0.00000000D+00
  0.16893252D-14  0.00000000D+00  0.00000000D+00  0.00000000D+00  0.29703061D-13
  0.00000000D+00  0.00000000D+00 -0.19400888D-13  0.00000000D+00  0.00000000D+00
 -0.69708296D-13  0.00000000D+00  0.00000000D+00  0.00000000D+00 -0.28800749D-11
  0.00000000D+00  0.00000000D+00  0.34342024D-11  0.00000000D+00  0.00000000D+00
  0.52060222D-11  0.00000000D+00  0.00000000D+00  0.00000000D+00  0.12507307D-15
  0.00000000D+00  0.00000000D+00 -0.19113254D-15  0.00000000D+00  0.00000000D+00
 -0.18408666D-15  0.00000000D+00  0.00000000D+00  0.00000000D+00  0.00000000D+00
  0.00000000D+00  0.00000000D+00  0.00000000D+00  0.00000000D+00  0.00000000D+00
  0.00000000D+00  0.00000000D+00  0.00000000D+00  0.00000000D+00  0.00000000D+00
  0.00000000D+00  0.00000000D+00  0.00000000D+00  0.00000000D+00  0.00000000D+00
  0.00000000D+00  0.00000000D+00  0.00000000D+00  0.00000000D+00  0.00000000D+00
  0.00000000D+00  0.00000000D+00  0.00000000D+00  0.00000000D+00  0.00000000D+00
  0.00000000D+00  0.00000000D+00  0.00000000D+00  0.00000000D+00  0.00000000D+00
  0.00000000D+00  0.00000000D+00  0.00000000D+00  0.00000000D+00  0.00000000D+00
  0.00000000D+00  0.00000000D+00  0.00000000D+00  0.00000000D+00  0.00000000D+00
  0.00000000D+00  0.00000000D+00  0.00000000D+00  0.00000000D+00  0.00000000D+00
  0.00000000D+00  0.00000000D+00  0.00000000D+00  0.00000000D+00  0.00000000D+00
  0.00000000D+00  0.00000000D+00  0.00000000D+00  0.00000000D+00  0.00000000D+00
  0.00000000D+00  0.00000000D+00 -0.51819038D-13  0.00000000D+00  0.25904129D-12
  0.00000000D+00 -0.77959294D-14  0.00000000D+00  0.00000000D+00  0.00000000D+00
  0.00000000D+00  0.00000000D+00  0.00000000D+00  0.25914909D-12  0.00000000D+00
 -0.73034828D-12  0.00000000D+00  0.00000000D+00  0.00000000D+00  0.00000000D+00
 -0.78498320D-14  0.00000000D+00  0.00000000D+00  0.41149927D-14  0.00000000D+00
 -0.20533009D-13  0.00000000D+00  0.61348025D-14  0.00000000D+00  0.00000000D+00
  0.00000000D+00  0.00000000D+00  0.00000000D+00  0.00000000D+00 -0.20616919D-13
  0.00000000D+00  0.24790211D-13  0.00000000D+00  0.00000000D+00  0.00000000D+00
  0.00000000D+00  0.61767574D-14  0.00000000D+00  0.00000000D+00
MO    6     MO 0.0        OCC NO =    0.0000131  ORB. ENERGY =    0.000000
  0.31808406D+00  0.55055610D+00  0.96448565D+00  0.15596479D+01  0.23964954D+01
  0.33533362D+01  0.41891215D+01  0.41019248D+01  0.26394893D+01  0.85390078D-02
  0.13518516D-01  0.89581876D-01  0.22295976D+00  0.65739346D+00  0.12182753D+01
  0.18003955D+01  0.39178763D+00  0.83555340D-02 -0.19729863D-02  0.47356165D-03
 -0.81983704D+01 -0.96704331D+01  0.55872193D+01  0.60001776D+01 -0.65929814D-04
  0.00000000D+00  0.00000000D+00  0.00000000D+00  0.00000000D+00  0.00000000D+00