 Title Card Required
GAUSSIAN            165 MOL ORBITALS    274 PRIMITIVES        1 NUCLEI
  F    1    (CENTRE  1)   0.00000000  0.00000000  0.00000000  CHARGE =  9.0
CENTRE ASSIGNMENTS    1  1  1  1  1  1  1  1  1  1  1  1  1  1  1  1  1  1  1  1
CENTRE ASSIGNMENTS    1  1  1  1  1  1  1  1  1  1  1  1  1  1  1  1  1  1  1  1
CENTRE ASSIGNMENTS    1  1  1  1  1  1  1  1  1  1  1  1  1  1  1  1  1  1  1  1
CENTRE ASSIGNMENTS    1  1  1  1  1  1  1  1  1  1  1  1  1  1  1  1  1  1  1  1
CENTRE ASSIGNMENTS    1  1  1  1  1  1  1  1  1  1  1  1  1  1  1  1  1  1  1  1
CENTRE ASSIGNMENTS    1  1  1  1  1  1  1  1  1  1  1  1  1  1  1  1  1  1  1  1
CENTRE ASSIGNMENTS    1  1  1  1  1  1  1  1  1  1  1  1  1  1  1  1  1  1  1  1
CENTRE ASSIGNMENTS    1  1  1  1  1  1  1  1  1  1  1  1  1  1  1  1  1  1  1  1
CENTRE ASSIGNMENTS    1  1  1  1  1  1  1  1  1  1  1  1  1  1  1  1  1  1  1  1
CENTRE ASSIGNMENTS    1  1  1  1  1  1  1  1  1  1  1  1  1  1  1  1  1  1  1  1
CENTRE ASSIGNMENTS    1  1  1  1  1  1  1  1  1  1  1  1  1  1  1  1  1  1  1  1
CENTRE ASSIGNMENTS    1  1  1  1  1  1  1  1  1  1  1  1  1  1  1  1  1  1  1  1
CENTRE ASSIGNMENTS    1  1  1  1  1  1  1  1  1  1  1  1  1  1  1  1  1  1  1  1
CENTRE ASSIGNMENTS    1  1  1  1  1  1  1  1  1  1  1  1  1  1
TYPE ASSIGNMENTS      1  1  1  1  1  1  1  1  1  1  1  1  1  1  1  1  1  1  1  1
TYPE ASSIGNMENTS      1  1  1  1  1  2  2  2  2  3  3  3  3  4  4  4  4  2  3  4
TYPE ASSIGNMENTS      2  3  4  2  3  4  2  3  4  2  3  4  2  3  4  2  3  4  2  3
TYPE ASSIGNMENTS      4  2  3  4  5  6  7  8  9 10  5  6  7  8  9 10  5  6  7  8
TYPE ASSIGNMENTS      9 10  5  6  7  8  9 10  5  6  7  8  9 10  5  6  7  8  9 10
TYPE ASSIGNMENTS      5  6  7  8  9 10  5  6  7  8  9 10 11 12 13 17 14 15 18 19
TYPE ASSIGNMENTS     16 20 11 12 13 17 14 15 18 19 16 20 11 12 13 17 14 15 18 19
TYPE ASSIGNMENTS     16 20 11 12 13 17 14 15 18 19 16 20 11 12 13 17 14 15 18 19
TYPE ASSIGNMENTS     16 20 11 12 13 17 14 15 18 19 16 20 23 29 32 27 22 28 35 34
TYPE ASSIGNMENTS     26 31 33 30 25 24 21 23 29 32 27 22 28 35 34 26 31 33 30 25
TYPE ASSIGNMENTS     24 21 23 29 32 27 22 28 35 34 26 31 33 30 25 24 21 23 29 32
TYPE ASSIGNMENTS     27 22 28 35 34 26 31 33 30 25 24 21 36 37 38 39 40 41 42 43
TYPE ASSIGNMENTS     44 45 46 47 48 49 50 51 52 53 54 55 56 36 37 38 39 40 41 42
TYPE ASSIGNMENTS     43 44 45 46 47 48 49 50 51 52 53 54 55 56
EXPONENTS  0.2114000D+06 0.3166000D+05 0.7202000D+04 0.2040000D+04 0.6664000D+03
EXPONENTS  0.2420000D+03 0.9553000D+02 0.4023000D+02 0.1772000D+02 0.2040000D+04
EXPONENTS  0.6664000D+03 0.2420000D+03 0.9553000D+02 0.4023000D+02 0.1772000D+02
EXPONENTS  0.8005000D+01 0.3538000D+01 0.1458000D+01 0.5887000D+00 0.2324000D+00
EXPONENTS  0.1624900D+02 0.3503300D+02 0.7553100D+02 0.1628450D+03 0.8060000D-01
EXPONENTS  0.2419000D+03 0.5717000D+02 0.1813000D+02 0.6624000D+01 0.2419000D+03
EXPONENTS  0.5717000D+02 0.1813000D+02 0.6624000D+01 0.2419000D+03 0.5717000D+02
EXPONENTS  0.1813000D+02 0.6624000D+01 0.2622000D+01 0.2622000D+01 0.2622000D+01
EXPONENTS  0.1057000D+01 0.1057000D+01 0.1057000D+01 0.4176000D+00 0.4176000D+00
EXPONENTS  0.4176000D+00 0.1574000D+00 0.1574000D+00 0.1574000D+00 0.1454700D+02
EXPONENTS  0.1454700D+02 0.1454700D+02 0.3538000D+02 0.3538000D+02 0.3538000D+02
EXPONENTS  0.8605100D+02 0.8605100D+02 0.8605100D+02 0.2092930D+03 0.2092930D+03
EXPONENTS  0.2092930D+03 0.5500000D-01 0.5500000D-01 0.5500000D-01 0.7760000D+01
EXPONENTS  0.7760000D+01 0.7760000D+01 0.7760000D+01 0.7760000D+01 0.7760000D+01
EXPONENTS  0.3032000D+01 0.3032000D+01 0.3032000D+01 0.3032000D+01 0.3032000D+01
EXPONENTS  0.3032000D+01 0.1185000D+01 0.1185000D+01 0.1185000D+01 0.1185000D+01
EXPONENTS  0.1185000D+01 0.1185000D+01 0.4630000D+00 0.4630000D+00 0.4630000D+00
EXPONENTS  0.4630000D+00 0.4630000D+00 0.4630000D+00 0.1833300D+02 0.1833300D+02
EXPONENTS  0.1833300D+02 0.1833300D+02 0.1833300D+02 0.1833300D+02 0.4763400D+02
EXPONENTS  0.4763400D+02 0.4763400D+02 0.4763400D+02 0.4763400D+02 0.4763400D+02
EXPONENTS  0.1237710D+03 0.1237710D+03 0.1237710D+03 0.1237710D+03 0.1237710D+03
EXPONENTS  0.1237710D+03 0.1720000D+00 0.1720000D+00 0.1720000D+00 0.1720000D+00
EXPONENTS  0.1720000D+00 0.1720000D+00 0.5398000D+01 0.5398000D+01 0.5398000D+01
EXPONENTS  0.5398000D+01 0.5398000D+01 0.5398000D+01 0.5398000D+01 0.5398000D+01
EXPONENTS  0.5398000D+01 0.5398000D+01 0.2078000D+01 0.2078000D+01 0.2078000D+01
EXPONENTS  0.2078000D+01 0.2078000D+01 0.2078000D+01 0.2078000D+01 0.2078000D+01
EXPONENTS  0.2078000D+01 0.2078000D+01 0.8000000D+00 0.8000000D+00 0.8000000D+00
EXPONENTS  0.8000000D+00 0.8000000D+00 0.8000000D+00 0.8000000D+00 0.8000000D+00
EXPONENTS  0.8000000D+00 0.8000000D+00 0.1664600D+02 0.1664600D+02 0.1664600D+02
EXPONENTS  0.1664600D+02 0.1664600D+02 0.1664600D+02 0.1664600D+02 0.1664600D+02
EXPONENTS  0.1664600D+02 0.1664600D+02 0.4941300D+02 0.4941300D+02 0.4941300D+02
EXPONENTS  0.4941300D+02 0.4941300D+02 0.4941300D+02 0.4941300D+02 0.4941300D+02
EXPONENTS  0.4941300D+02 0.4941300D+02 0.3310000D+00 0.3310000D+00 0.3310000D+00
EXPONENTS  0.3310000D+00 0.3310000D+00 0.3310000D+00 0.3310000D+00 0.3310000D+00
EXPONENTS  0.3310000D+00 0.3310000D+00 0.4338000D+01 0.4338000D+01 0.4338000D+01
EXPONENTS  0.4338000D+01 0.4338000D+01 0.4338000D+01 0.4338000D+01 0.4338000D+01
EXPONENTS  0.4338000D+01 0.4338000D+01 0.4338000D+01 0.4338000D+01 0.4338000D+01
EXPONENTS  0.4338000D+01 0.4338000D+01 0.1513000D+01 0.1513000D+01 0.1513000D+01
EXPONENTS  0.1513000D+01 0.1513000D+01 0.1513000D+01 0.1513000D+01 0.1513000D+01
EXPONENTS  0.1513000D+01 0.1513000D+01 0.1513000D+01 0.1513000D+01 0.1513000D+01
EXPONENTS  0.1513000D+01 0.1513000D+01 0.1960900D+02 0.1960900D+02 0.1960900D+02
EXPONENTS  0.1960900D+02 0.1960900D+02 0.1960900D+02 0.1960900D+02 0.1960900D+02
EXPONENTS  0.1960900D+02 0.1960900D+02 0.1960900D+02 0.1960900D+02 0.1960900D+02
EXPONENTS  0.1960900D+02 0.1960900D+02 0.6630000D+00 0.6630000D+00 0.6630000D+00
EXPONENTS  0.6630000D+00 0.6630000D+00 0.6630000D+00 0.6630000D+00 0.6630000D+00
EXPONENTS  0.6630000D+00 0.6630000D+00 0.6630000D+00 0.6630000D+00 0.6630000D+00
EXPONENTS  0.6630000D+00 0.6630000D+00 0.2995000D+01 0.2995000D+01 0.2995000D+01
EXPONENTS  0.2995000D+01 0.2995000D+01 0.2995000D+01 0.2995000D+01 0.2995000D+01
EXPONENTS  0.2995000D+01 0.2995000D+01 0.2995000D+01 0.2995000D+01 0.2995000D+01
EXPONENTS  0.2995000D+01 0.2995000D+01 0.2995000D+01 0.2995000D+01 0.2995000D+01
EXPONENTS  0.2995000D+01 0.2995000D+01 0.2995000D+01 0.1326000D+01 0.1326000D+01
EXPONENTS  0.1326000D+01 0.1326000D+01 0.1326000D+01 0.1326000D+01 0.1326000D+01
EXPONENTS  0.1326000D+01 0.1326000D+01 0.1326000D+01 0.1326000D+01 0.1326000D+01
EXPONENTS  0.1326000D+01 0.1326000D+01 0.1326000D+01 0.1326000D+01 0.1326000D+01
EXPONENTS  0.1326000D+01 0.1326000D+01 0.1326000D+01 0.1326000D+01
MO    1     MO 0.0        OCC NO =    1.9992936  ORB. ENERGY =    0.000000
  0.18442201D+00  0.33980132D+00  0.59340460D+00  0.96203449D+00  0.14739867D+01
  0.20647087D+01  0.25494265D+01  0.24578522D+01  0.14558687D+01  0.49693191D-02
  0.12407432D-01  0.57351132D-01  0.15779429D+00  0.43171110D+00  0.81020977D+00
  0.96072883D+00  0.10285996D+00 -0.11840461D-01 -0.22537708D-02  0.20692535D-05
  0.14089029D-01  0.34656635D-02  0.11038995D-02 -0.45358617D-03 -0.11894118D-05
  0.00000000D+00  0.00000000D+00  0.00000000D+00  0.00000000D+00  0.00000000D+00
  0.00000000D+00  0.00000000D+00  0.00000000D+00  0.00000000D+00  0.00000000D+00
  0.00000000D+00  0.00000000D+00  0.00000000D+00  0.00000000D+00  0.00000000D+00
  0.00000000D+00  0.00000000D+00  0.00000000D+00  0.00000000D+00  0.00000000D+00
  0.00000000D+00  0.00000000D+00  0.00000000D+00  0.00000000D+00  0.00000000D+00
  0.00000000D+00  0.00000000D+00  0.00000000D+00  0.00000000D+00  0.00000000D+00
  0.00000000D+00  0.00000000D+00  0.00000000D+00  0.00000000D+00  0.00000000D+00
  0.00000000D+00  0.00000000D+00  0.00000000D+00  0.00000000D+00 -0.20093891D-13
 -0.34745716D-13  0.54839608D-13  0.64249882D-30  0.23613672D-30 -0.55226877D-15
  0.31663923D-14  0.10228245D-13 -0.13394637D-13  0.14667833D-32 -0.13612744D-31
 -0.62376483D-16 -0.42861023D-16 -0.25648484D-14  0.26077095D-14 -0.63293659D-31
 -0.15755149D-31 -0.74246551D-16  0.14753795D-16  0.34674131D-15 -0.36149511D-15
  0.10745047D-31  0.27955778D-32  0.99118388D-17  0.48920797D-14  0.10301223D-12
 -0.10790431D-12 -0.29849747D-29 -0.90561623D-30 -0.37052324D-14  0.21122764D-12
 -0.19947687D-12 -0.11750771D-13  0.24258993D-28  0.68566263D-29  0.48193293D-13
 -0.17475139D-11  0.92169603D-12  0.82581787D-12 -0.77195001D-28 -0.21255350D-28
  0.21443815D-12 -0.18514168D-17 -0.23348393D-16  0.25199809D-16 -0.63309428D-33
 -0.15928502D-33  0.19461119D-17  0.00000000D+00  0.00000000D+00  0.00000000D+00
  0.00000000D+00  0.00000000D+00  0.00000000D+00  0.00000000D+00  0.00000000D+00
  0.00000000D+00  0.00000000D+00  0.00000000D+00  0.00000000D+00  0.00000000D+00
  0.00000000D+00  0.00000000D+00  0.00000000D+00  0.00000000D+00  0.00000000D+00
  0.00000000D+00  0.00000000D+00  0.00000000D+00  0.00000000D+00  0.00000000D+00
  0.00000000D+00  0.00000000D+00  0.00000000D+00  0.00000000D+00  0.00000000D+00
  0.00000000D+00  0.00000000D+00  0.00000000D+00  0.00000000D+00  0.00000000D+00
  0.00000000D+00  0.00000000D+00  0.00000000D+00  0.00000000D+00  0.00000000D+00
  0.00000000D+00  0.00000000D+00  0.00000000D+00  0.00000000D+00  0.00000000D+00
  0.00000000D+00  0.00000000D+00  0.00000000D+00  0.00000000D+00  0.00000000D+00
  0.00000000D+00  0.00000000D+00  0.00000000D+00  0.00000000D+00  0.00000000D+00
  0.00000000D+00  0.00000000D+00  0.00000000D+00  0.00000000D+00  0.00000000D+00
  0.00000000D+00  0.00000000D+00  0.58025600D-13  0.14584993D-13 -0.16044266D-12
  0.18870278D-13  0.55460546D-13  0.26847683D-30  0.18480141D-30  0.78190415D-31
 -0.85167734D-30 -0.18771093D-12 -0.10036581D-12 -0.17232061D-12 -0.29454030D-30
  0.79007687D-30  0.60005258D-13  0.22182476D-14  0.12870162D-15 -0.73503621D-14
  0.10600872D-15  0.35908826D-14 -0.62362834D-31 -0.47227415D-31 -0.13516206D-31
  0.53693983D-30 -0.59591233D-14 -0.70413101D-15 -0.14194934D-13  0.66868236D-31
 -0.52119736D-30  0.33590095D-14 -0.28458285D-13 -0.88005360D-12 -0.99539577D-12
 -0.11135572D-11  0.66951710D-12  0.16956437D-28 -0.19398954D-28 -0.58911030D-29
 -0.48349961D-28  0.11661455D-11  0.59808324D-11 -0.30217068D-11 -0.14992736D-28
  0.54816279D-28  0.30926022D-12  0.30705385D-15 -0.67290710D-16 -0.79791550D-15
 -0.80082858D-16  0.19050657D-15  0.41561901D-32  0.86229360D-32  0.26920597D-32
 -0.43194096D-31 -0.10444076D-14  0.44212071D-15 -0.34512390D-15 -0.50535433D-32
  0.40319784D-31  0.23158858D-15  0.00000000D+00  0.00000000D+00  0.00000000D+00
  0.00000000D+00  0.00000000D+00  0.00000000D+00  0.00000000D+00  0.00000000D+00
  0.00000000D+00  0.00000000D+00  0.00000000D+00  0.00000000D+00  0.00000000D+00
  0.00000000D+00  0.00000000D+00  0.00000000D+00  0.00000000D+00  0.00000000D+00
  0.00000000D+00  0.00000000D+00  0.00000000D+00  0.00000000D+00  0.00000000D+00
  0.00000000D+00  0.00000000D+00  0.00000000D+00  0.00000000D+00  0.00000000D+00
  0.00000000D+00  0.00000000D+00  0.00000000D+00  0.00000000D+00  0.00000000D+00
  0.00000000D+00  0.00000000D+00  0.00000000D+00  0.00000000D+00  0.00000000D+00
  0.00000000D+00  0.00000000D+00  0.00000000D+00  0.00000000D+00
MO    2     MO 0.0        OCC NO =    1.8756310  ORB. ENERGY =    0.000000
 -0.50016811D-01 -0.92156993D-01 -0.16093635D+00 -0.26091190D+00 -0.39975766D+00
 -0.55996646D+00 -0.69142604D+00 -0.66659031D+00 -0.39484390D+00 -0.34631316D-02
 -0.86467725D-02 -0.39968156D-01 -0.10996726D+00 -0.30086061D+00 -0.56463733D+00
 -0.66953446D+00  0.11950755D+00  0.69245088D+00  0.17806920D+00 -0.51263924D-02
 -0.26584335D-03  0.96413343D-02  0.18716204D-02  0.20113380D-02  0.62422379D-03
  0.00000000D+00  0.00000000D+00  0.00000000D+00  0.00000000D+00  0.00000000D+00
  0.00000000D+00  0.00000000D+00  0.00000000D+00  0.00000000D+00  0.00000000D+00
  0.00000000D+00  0.00000000D+00  0.00000000D+00  0.00000000D+00  0.00000000D+00
  0.00000000D+00  0.00000000D+00  0.00000000D+00  0.00000000D+00  0.00000000D+00
  0.00000000D+00  0.00000000D+00  0.00000000D+00  0.00000000D+00  0.00000000D+00
  0.00000000D+00  0.00000000D+00  0.00000000D+00  0.00000000D+00  0.00000000D+00
  0.00000000D+00  0.00000000D+00  0.00000000D+00  0.00000000D+00  0.00000000D+00
  0.00000000D+00  0.00000000D+00  0.00000000D+00  0.00000000D+00 -0.33950467D-13
 -0.63495314D-15  0.34585421D-13 -0.86856077D-29 -0.44547979D-29 -0.87105374D-14
  0.46867854D-14  0.37828997D-14 -0.84696851D-14  0.11561224D-29  0.64564406D-30
 -0.45943348D-15 -0.89814731D-15  0.62333521D-15  0.27481210D-15 -0.53639108D-31
 -0.47122689D-31  0.32133697D-15  0.80356022D-16  0.41794974D-17 -0.84535519D-16
 -0.17925907D-31 -0.22504503D-32 -0.11189257D-15 -0.80582867D-14 -0.10670615D-12
  0.11476444D-12  0.86602644D-29  0.38156074D-29  0.37721964D-13  0.22874967D-12
  0.34723349D-12 -0.57598316D-12 -0.18391491D-28 -0.46066833D-29 -0.20562462D-12
 -0.34232164D-12 -0.14469149D-11  0.17892366D-11  0.61437576D-28  0.16017430D-29
 -0.70273038D-12 -0.90855886D-17  0.21128024D-17  0.69727861D-17  0.24609050D-32
  0.44358276D-33  0.99227513D-17  0.00000000D+00  0.00000000D+00  0.00000000D+00
  0.00000000D+00  0.00000000D+00  0.00000000D+00  0.00000000D+00  0.00000000D+00
  0.00000000D+00  0.00000000D+00  0.00000000D+00  0.00000000D+00  0.00000000D+00
  0.00000000D+00  0.00000000D+00  0.00000000D+00  0.00000000D+00  0.00000000D+00
  0.00000000D+00  0.00000000D+00  0.00000000D+00  0.00000000D+00  0.00000000D+00
  0.00000000D+00  0.00000000D+00  0.00000000D+00  0.00000000D+00  0.00000000D+00
  0.00000000D+00  0.00000000D+00  0.00000000D+00  0.00000000D+00  0.00000000D+00
  0.00000000D+00  0.00000000D+00  0.00000000D+00  0.00000000D+00  0.00000000D+00
  0.00000000D+00  0.00000000D+00  0.00000000D+00  0.00000000D+00  0.00000000D+00
  0.00000000D+00  0.00000000D+00  0.00000000D+00  0.00000000D+00  0.00000000D+00
  0.00000000D+00  0.00000000D+00  0.00000000D+00  0.00000000D+00  0.00000000D+00
  0.00000000D+00  0.00000000D+00  0.00000000D+00  0.00000000D+00  0.00000000D+00
  0.00000000D+00  0.00000000D+00 -0.69717248D-14  0.54649860D-13  0.16726752D-13
 -0.53745414D-13 -0.11036666D-13  0.60686534D-30 -0.11751847D-28 -0.41225357D-29
 -0.29690349D-29  0.25103597D-13 -0.27133372D-14  0.49493242D-13  0.76731321D-30
  0.68863172D-29 -0.12432806D-13 -0.21548726D-13  0.29017070D-15  0.65267147D-13
 -0.29978018D-15 -0.22023097D-13 -0.99669157D-31 -0.13416184D-31 -0.11876000D-31
  0.19174074D-30  0.64025209D-13  0.28828464D-16  0.66871433D-13  0.10362782D-30
 -0.18726868D-30 -0.21816107D-13  0.25500688D-12 -0.32179760D-11 -0.55459253D-11
  0.31706900D-11  0.16099881D-11  0.31272552D-27  0.33139271D-26  0.11737994D-26
 -0.13857486D-26  0.40158840D-11  0.14185795D-12 -0.41140036D-11 -0.70399199D-27
  0.28110623D-27  0.16353265D-13 -0.11231557D-14 -0.22998430D-15  0.32719055D-14
  0.22784033D-15 -0.11011258D-14 -0.23707788D-31  0.71181202D-31  0.26396895D-31
  0.21427173D-30  0.34670290D-14  0.64319019D-17  0.33348492D-14  0.14908823D-31
 -0.23799879D-30 -0.11336464D-14  0.00000000D+00  0.00000000D+00  0.00000000D+00
  0.00000000D+00  0.00000000D+00  0.00000000D+00  0.00000000D+00  0.00000000D+00
  0.00000000D+00  0.00000000D+00  0.00000000D+00  0.00000000D+00  0.00000000D+00
  0.00000000D+00  0.00000000D+00  0.00000000D+00  0.00000000D+00  0.00000000D+00
  0.00000000D+00  0.00000000D+00  0.00000000D+00  0.00000000D+00  0.00000000D+00
  0.00000000D+00  0.00000000D+00  0.00000000D+00  0.00000000D+00  0.00000000D+00
  0.00000000D+00  0.00000000D+00  0.00000000D+00  0.00000000D+00  0.00000000D+00
  0.00000000D+00  0.00000000D+00  0.00000000D+00  0.00000000D+00  0.00000000D+00
  0.00000000D+00  0.00000000D+00  0.00000000D+00  0.00000000D+00
MO    3     MO 0.0        OCC NO =    0.0412791  ORB. ENERGY =    0.000000
  0.00000000D+00  0.00000000D+00  0.00000000D+00  0.00000000D+00  0.00000000D+00
  0.00000000D+00  0.00000000D+00  0.00000000D+00  0.00000000D+00  0.00000000D+00
  0.00000000D+00  0.00000000D+00  0.00000000D+00  0.00000000D+00  0.00000000D+00
  0.00000000D+00  0.00000000D+00  0.00000000D+00  0.00000000D+00  0.00000000D+00
  0.00000000D+00  0.00000000D+00  0.00000000D+00  0.00000000D+00  0.00000000D+00
  0.00000000D+00  0.00000000D+00  0.00000000D+00  0.00000000D+00  0.17294776D+01
  0.22907318D+01  0.25753216D+01  0.23798509D+01  0.00000000D+00  0.00000000D+00
  0.00000000D+00  0.00000000D+00  0.00000000D+00  0.23141880D+01  0.00000000D+00
  0.00000000D+00  0.64991520D+00  0.00000000D+00  0.00000000D+00  0.86175607D-02
  0.00000000D+00  0.00000000D+00  0.62538218D-03  0.00000000D+00  0.00000000D+00
  0.10167111D+00  0.00000000D+00  0.00000000D+00  0.10641028D+00  0.00000000D+00
  0.00000000D+00  0.22447186D+00  0.00000000D+00  0.00000000D+00  0.68976387D-01
  0.00000000D+00  0.00000000D+00 -0.58825454D-04  0.00000000D+00  0.00000000D+00
  0.00000000D+00  0.00000000D+00  0.00000000D+00  0.00000000D+00  0.00000000D+00
  0.00000000D+00  0.00000000D+00  0.00000000D+00  0.00000000D+00  0.00000000D+00
  0.00000000D+00  0.00000000D+00  0.00000000D+00  0.00000000D+00  0.00000000D+00
  0.00000000D+00  0.00000000D+00  0.00000000D+00  0.00000000D+00  0.00000000D+00
  0.00000000D+00  0.00000000D+00  0.00000000D+00  0.00000000D+00  0.00000000D+00
  0.00000000D+00  0.00000000D+00  0.00000000D+00  0.00000000D+00  0.00000000D+00
  0.00000000D+00  0.00000000D+00  0.00000000D+00  0.00000000D+00  0.00000000D+00
  0.00000000D+00  0.00000000D+00  0.00000000D+00  0.00000000D+00  0.00000000D+00
  0.00000000D+00  0.00000000D+00  0.00000000D+00  0.00000000D+00  0.00000000D+00
  0.00000000D+00  0.00000000D+00  0.00000000D+00  0.52705424D-13  0.00000000D+00
  0.00000000D+00 -0.99297288D-13  0.00000000D+00  0.00000000D+00 -0.58818984D-13
  0.00000000D+00  0.00000000D+00  0.00000000D+00  0.16300847D-12  0.00000000D+00
  0.00000000D+00 -0.24751436D-12  0.00000000D+00  0.00000000D+00 -0.24151104D-12
  0.00000000D+00  0.00000000D+00  0.00000000D+00  0.45490194D-13  0.00000000D+00
  0.00000000D+00 -0.67924952D-13  0.00000000D+00  0.00000000D+00 -0.68545628D-13
  0.00000000D+00  0.00000000D+00  0.00000000D+00 -0.27557258D-12  0.00000000D+00
  0.00000000D+00  0.85341362D-12  0.00000000D+00  0.00000000D+00 -0.26695867D-13
  0.00000000D+00  0.00000000D+00  0.00000000D+00  0.26213849D-12  0.00000000D+00
  0.00000000D+00 -0.20937942D-11  0.00000000D+00  0.00000000D+00  0.13073787D-11
  0.00000000D+00  0.00000000D+00  0.00000000D+00 -0.13600133D-14  0.00000000D+00
  0.00000000D+00  0.20897406D-14  0.00000000D+00  0.00000000D+00  0.19902992D-14
  0.00000000D+00  0.00000000D+00  0.00000000D+00  0.00000000D+00  0.00000000D+00
  0.00000000D+00  0.00000000D+00  0.00000000D+00  0.00000000D+00  0.00000000D+00
  0.00000000D+00  0.00000000D+00  0.00000000D+00  0.00000000D+00  0.00000000D+00
  0.00000000D+00  0.00000000D+00  0.00000000D+00  0.00000000D+00  0.00000000D+00
  0.00000000D+00  0.00000000D+00  0.00000000D+00  0.00000000D+00  0.00000000D+00
  0.00000000D+00  0.00000000D+00  0.00000000D+00  0.00000000D+00  0.00000000D+00
  0.00000000D+00  0.00000000D+00  0.00000000D+00  0.00000000D+00  0.00000000D+00
  0.00000000D+00  0.00000000D+00  0.00000000D+00  0.00000000D+00  0.00000000D+00
  0.00000000D+00  0.00000000D+00  0.00000000D+00  0.00000000D+00  0.00000000D+00
  0.00000000D+00  0.00000000D+00  0.00000000D+00  0.00000000D+00  0.00000000D+00
  0.00000000D+00  0.00000000D+00  0.00000000D+00  0.00000000D+00  0.00000000D+00
  0.00000000D+00  0.00000000D+00  0.00000000D+00  0.00000000D+00  0.00000000D+00
  0.00000000D+00  0.00000000D+00  0.00000000D+00  0.41726417D-12  0.00000000D+00
 -0.11076255D-11  0.00000000D+00  0.22316243D-12  0.00000000D+00  0.00000000D+00
  0.00000000D+00  0.00000000D+00  0.00000000D+00  0.00000000D+00  0.81929161D-12
  0.00000000D+00 -0.11239988D-11  0.00000000D+00  0.00000000D+00  0.00000000D+00
  0.00000000D+00  0.42545080D-12  0.00000000D+00  0.00000000D+00  0.14835594D-12
  0.00000000D+00 -0.15287368D-12  0.00000000D+00  0.30460714D-13  0.00000000D+00
  0.00000000D+00  0.00000000D+00  0.00000000D+00  0.00000000D+00  0.00000000D+00
 -0.43151458D-12  0.00000000D+00 -0.15173346D-12  0.00000000D+00  0.00000000D+00
  0.00000000D+00  0.00000000D+00  0.14778583D-12  0.00000000D+00
MO    4     MO 0.0        OCC NO =    0.0412791  ORB. ENERGY =    0.000000
  0.00000000D+00  0.00000000D+00  0.00000000D+00  0.00000000D+00  0.00000000D+00
  0.00000000D+00  0.00000000D+00  0.00000000D+00  0.00000000D+00  0.00000000D+00
  0.00000000D+00  0.00000000D+00  0.00000000D+00  0.00000000D+00  0.00000000D+00
  0.00000000D+00  0.00000000D+00  0.00000000D+00  0.00000000D+00  0.00000000D+00
  0.00000000D+00  0.00000000D+00  0.00000000D+00  0.00000000D+00  0.00000000D+00
  0.17294776D+01  0.22907318D+01  0.25753216D+01  0.23798509D+01  0.00000000D+00
  0.00000000D+00  0.00000000D+00  0.00000000D+00  0.00000000D+00  0.00000000D+00
  0.00000000D+00  0.00000000D+00  0.23141880D+01  0.00000000D+00  0.00000000D+00
  0.64991520D+00  0.00000000D+00  0.00000000D+00  0.86175607D-02  0.00000000D+00
  0.00000000D+00  0.62538218D-03  0.00000000D+00  0.00000000D+00  0.10167111D+00
  0.00000000D+00  0.00000000D+00  0.10641028D+00  0.00000000D+00  0.00000000D+00
  0.22447186D+00  0.00000000D+00  0.00000000D+00  0.68976387D-01  0.00000000D+00
  0.00000000D+00 -0.58825454D-04  0.00000000D+00  0.00000000D+00  0.00000000D+00
  0.00000000D+00  0.00000000D+00  0.00000000D+00  0.00000000D+00  0.00000000D+00
  0.00000000D+00  0.00000000D+00  0.00000000D+00  0.00000000D+00  0.00000000D+00
  0.00000000D+00  0.00000000D+00  0.00000000D+00  0.00000000D+00  0.00000000D+00
  0.00000000D+00  0.00000000D+00  0.00000000D+00  0.00000000D+00  0.00000000D+00
  0.00000000D+00  0.00000000D+00  0.00000000D+00  0.00000000D+00  0.00000000D+00
  0.00000000D+00  0.00000000D+00  0.00000000D+00  0.00000000D+00  0.00000000D+00
  0.00000000D+00  0.00000000D+00  0.00000000D+00  0.00000000D+00  0.00000000D+00
  0.00000000D+00  0.00000000D+00  0.00000000D+00  0.00000000D+00  0.00000000D+00
  0.00000000D+00  0.00000000D+00  0.00000000D+00  0.00000000D+00  0.00000000D+00
  0.00000000D+00  0.00000000D+00  0.84364698D-13  0.00000000D+00  0.00000000D+00
 -0.15025194D-12  0.00000000D+00  0.00000000D+00 -0.10284215D-12  0.00000000D+00
  0.00000000D+00  0.00000000D+00  0.16909878D-12  0.00000000D+00  0.00000000D+00
 -0.25936871D-12  0.00000000D+00  0.00000000D+00 -0.24792763D-12  0.00000000D+00
  0.00000000D+00  0.00000000D+00  0.45390552D-13  0.00000000D+00  0.00000000D+00
 -0.68097810D-13  0.00000000D+00  0.00000000D+00 -0.68073845D-13  0.00000000D+00
  0.00000000D+00  0.00000000D+00 -0.20261075D-12  0.00000000D+00  0.00000000D+00
  0.32957106D-12  0.00000000D+00  0.00000000D+00  0.27826118D-12  0.00000000D+00
  0.00000000D+00  0.00000000D+00  0.26036684D-11  0.00000000D+00  0.00000000D+00
 -0.67996786D-11  0.00000000D+00  0.00000000D+00 -0.10113267D-11  0.00000000D+00
  0.00000000D+00  0.00000000D+00 -0.13067909D-14  0.00000000D+00  0.00000000D+00
  0.19940486D-14  0.00000000D+00  0.00000000D+00  0.19263239D-14  0.00000000D+00
  0.00000000D+00  0.00000000D+00  0.00000000D+00  0.00000000D+00  0.00000000D+00
  0.00000000D+00  0.00000000D+00  0.00000000D+00  0.00000000D+00  0.00000000D+00
  0.00000000D+00  0.00000000D+00  0.00000000D+00  0.00000000D+00  0.00000000D+00
  0.00000000D+00  0.00000000D+00  0.00000000D+00  0.00000000D+00  0.00000000D+00
  0.00000000D+00  0.00000000D+00  0.00000000D+00  0.00000000D+00  0.00000000D+00
  0.00000000D+00  0.00000000D+00  0.00000000D+00  0.00000000D+00  0.00000000D+00
  0.00000000D+00  0.00000000D+00  0.00000000D+00  0.00000000D+00  0.00000000D+00
  0.00000000D+00  0.00000000D+00  0.00000000D+00  0.00000000D+00  0.00000000D+00
  0.00000000D+00  0.00000000D+00  0.00000000D+00  0.00000000D+00  0.00000000D+00
  0.00000000D+00  0.00000000D+00  0.00000000D+00  0.00000000D+00  0.00000000D+00
  0.00000000D+00  0.00000000D+00  0.00000000D+00  0.00000000D+00  0.00000000D+00
  0.00000000D+00  0.00000000D+00  0.00000000D+00  0.00000000D+00  0.00000000D+00
  0.00000000D+00  0.00000000D+00  0.00000000D+00  0.00000000D+00  0.00000000D+00
  0.00000000D+00  0.00000000D+00  0.00000000D+00  0.42469004D-12  0.00000000D+00
  0.77296830D-12  0.00000000D+00  0.42358353D-12  0.00000000D+00  0.00000000D+00
  0.00000000D+00  0.00000000D+00 -0.11070362D-11  0.00000000D+00 -0.11048232D-11
  0.00000000D+00  0.00000000D+00  0.22118593D-12  0.00000000D+00  0.00000000D+00
  0.00000000D+00  0.00000000D+00  0.00000000D+00  0.00000000D+00  0.14703875D-12
  0.00000000D+00 -0.43366168D-12  0.00000000D+00  0.14716837D-12  0.00000000D+00
  0.00000000D+00  0.00000000D+00  0.00000000D+00 -0.14952361D-12  0.00000000D+00
 -0.14978285D-12  0.00000000D+00  0.00000000D+00  0.29930646D-13
MO    5     MO 0.0        OCC NO =    0.0412791  ORB. ENERGY =    0.000000
  0.00000000D+00  0.00000000D+00  0.00000000D+00  0.00000000D+00  0.00000000D+00
  0.00000000D+00  0.00000000D+00  0.00000000D+00  0.00000000D+00  0.00000000D+00
  0.00000000D+00  0.00000000D+00  0.00000000D+00  0.00000000D+00  0.00000000D+00
  0.00000000D+00  0.00000000D+00  0.00000000D+00  0.00000000D+00  0.00000000D+00
  0.00000000D+00  0.00000000D+00  0.00000000D+00  0.00000000D+00  0.00000000D+00
  0.00000000D+00  0.00000000D+00  0.00000000D+00  0.00000000D+00  0.00000000D+00
  0.00000000D+00  0.00000000D+00  0.00000000D+00  0.17294776D+01  0.22907318D+01
  0.25753216D+01  0.23798509D+01  0.00000000D+00  0.00000000D+00  0.23141880D+01
  0.00000000D+00  0.00000000D+00  0.64991520D+00  0.00000000D+00  0.00000000D+00
  0.86175607D-02  0.00000000D+00  0.00000000D+00  0.62538218D-03  0.00000000D+00
  0.00000000D+00  0.10167111D+00  0.00000000D+00  0.00000000D+00  0.10641028D+00
  0.00000000D+00  0.00000000D+00  0.22447186D+00  0.00000000D+00  0.00000000D+00
  0.68976387D-01  0.00000000D+00  0.00000000D+00 -0.58825454D-04  0.00000000D+00
  0.00000000D+00  0.00000000D+00  0.00000000D+00  0.00000000D+00  0.00000000D+00
  0.00000000D+00  0.00000000D+00  0.00000000D+00  0.00000000D+00  0.00000000D+00
  0.00000000D+00  0.00000000D+00  0.00000000D+00  0.00000000D+00  0.00000000D+00
  0.00000000D+00  0.00000000D+00  0.00000000D+00  0.00000000D+00  0.00000000D+00
  0.00000000D+00  0.00000000D+00  0.00000000D+00  0.00000000D+00  0.00000000D+00
  0.00000000D+00  0.00000000D+00  0.00000000D+00  0.00000000D+00  0.00000000D+00
  0.00000000D+00  0.00000000D+00  0.00000000D+00  0.00000000D+00  0.00000000D+00
  0.00000000D+00  0.00000000D+00  0.00000000D+00  0.00000000D+00  0.00000000D+00
  0.00000000D+00  0.00000000D+00  0.00000000D+00  0.00000000D+00  0.00000000D+00
  0.00000000D+00  0.00000000D+00  0.00000000D+00  0.00000000D+00  0.97670328D-13
  0.00000000D+00  0.00000000D+00 -0.11801159D-12  0.00000000D+00  0.00000000D+00
 -0.17499939D-12  0.00000000D+00  0.00000000D+00  0.00000000D+00  0.16815950D-12
  0.00000000D+00  0.00000000D+00 -0.24442593D-12  0.00000000D+00  0.00000000D+00
 -0.26005256D-12  0.00000000D+00  0.00000000D+00  0.00000000D+00  0.45711750D-13
  0.00000000D+00  0.00000000D+00 -0.69271095D-13  0.00000000D+00  0.00000000D+00
 -0.67864156D-13  0.00000000D+00  0.00000000D+00  0.00000000D+00 -0.59549715D-12
  0.00000000D+00  0.00000000D+00  0.77795505D-12  0.00000000D+00  0.00000000D+00
  0.10085364D-11  0.00000000D+00  0.00000000D+00  0.00000000D+00  0.48067854D-11
  0.00000000D+00  0.00000000D+00 -0.56538324D-11  0.00000000D+00  0.00000000D+00
 -0.87665238D-11  0.00000000D+00  0.00000000D+00  0.00000000D+00 -0.13401259D-14
  0.00000000D+00  0.00000000D+00  0.20913849D-14  0.00000000D+00  0.00000000D+00
  0.19289928D-14  0.00000000D+00  0.00000000D+00  0.00000000D+00  0.00000000D+00
  0.00000000D+00  0.00000000D+00  0.00000000D+00  0.00000000D+00  0.00000000D+00
  0.00000000D+00  0.00000000D+00  0.00000000D+00  0.00000000D+00  0.00000000D+00
  0.00000000D+00  0.00000000D+00  0.00000000D+00  0.00000000D+00  0.00000000D+00
  0.00000000D+00  0.00000000D+00  0.00000000D+00  0.00000000D+00  0.00000000D+00
  0.00000000D+00  0.00000000D+00  0.00000000D+00  0.00000000D+00  0.00000000D+00
  0.00000000D+00  0.00000000D+00  0.00000000D+00  0.00000000D+00  0.00000000D+00
  0.00000000D+00  0.00000000D+00  0.00000000D+00  0.00000000D+00  0.00000000D+00
  0.00000000D+00  0.00000000D+00  0.00000000D+00  0.00000000D+00  0.00000000D+00
  0.00000000D+00  0.00000000D+00  0.00000000D+00  0.00000000D+00  0.00000000D+00
  0.00000000D+00  0.00000000D+00  0.00000000D+00  0.00000000D+00  0.00000000D+00
  0.00000000D+00  0.00000000D+00  0.00000000D+00  0.00000000D+00  0.00000000D+00
  0.00000000D+00  0.00000000D+00  0.22555644D-12  0.00000000D+00 -0.11366268D-11
  0.00000000D+00  0.43330867D-12  0.00000000D+00  0.00000000D+00  0.00000000D+00
  0.00000000D+00  0.00000000D+00  0.00000000D+00 -0.11189376D-11  0.00000000D+00
  0.81002842D-12  0.00000000D+00  0.00000000D+00  0.00000000D+00  0.00000000D+00
  0.42446404D-12  0.00000000D+00  0.00000000D+00  0.30287514D-13  0.00000000D+00
 -0.15315766D-12  0.00000000D+00  0.14822064D-12  0.00000000D+00  0.00000000D+00
  0.00000000D+00  0.00000000D+00  0.00000000D+00  0.00000000D+00 -0.14971748D-12
  0.00000000D+00 -0.42985084D-12  0.00000000D+00  0.00000000D+00  0.00000000D+00
  0.00000000D+00  0.14650055D-12  0.00000000D+00  0.00000000D+00
MO    6     MO 0.0        OCC NO =    0.0003623  ORB. ENERGY =    0.000000
  0.21078259D+00  0.38837121D+00  0.67822357D+00  0.10995440D+01  0.16846727D+01
  0.23598302D+01  0.29138317D+01  0.28091681D+01  0.16639649D+01  0.25752838D-03
  0.64299875D-03  0.29721465D-02  0.81774801D-02  0.22372856D-01  0.41988048D-01
  0.49788499D-01 -0.22266034D+01  0.82868009D-01  0.42683768D+00 -0.19972619D-01
 -0.20145851D+01  0.14812613D+01  0.22836979D+01  0.13654962D+01  0.24775103D-02
  0.00000000D+00  0.00000000D+00  0.00000000D+00  0.00000000D+00  0.00000000D+00