 Title Card Required
GAUSSIAN             72 MOL ORBITALS    274 PRIMITIVES        1 NUCLEI
  F    1    (CENTRE  1)   0.00000000  0.00000000  0.00000000  CHARGE =  9.0
CENTRE ASSIGNMENTS    1  1  1  1  1  1  1  1  1  1  1  1  1  1  1  1  1  1  1  1
CENTRE ASSIGNMENTS    1  1  1  1  1  1  1  1  1  1  1  1  1  1  1  1  1  1  1  1
CENTRE ASSIGNMENTS    1  1  1  1  1  1  1  1  1  1  1  1  1  1  1  1  1  1  1  1
CENTRE ASSIGNMENTS    1  1  1  1  1  1  1  1  1  1  1  1  1  1  1  1  1  1  1  1
CENTRE ASSIGNMENTS    1  1  1  1  1  1  1  1  1  1  1  1  1  1  1  1  1  1  1  1
CENTRE ASSIGNMENTS    1  1  1  1  1  1  1  1  1  1  1  1  1  1  1  1  1  1  1  1
CENTRE ASSIGNMENTS    1  1  1  1  1  1  1  1  1  1  1  1  1  1  1  1  1  1  1  1
CENTRE ASSIGNMENTS    1  1  1  1  1  1  1  1  1  1  1  1  1  1  1  1  1  1  1  1
CENTRE ASSIGNMENTS    1  1  1  1  1  1  1  1  1  1  1  1  1  1  1  1  1  1  1  1
CENTRE ASSIGNMENTS    1  1  1  1  1  1  1  1  1  1  1  1  1  1  1  1  1  1  1  1
CENTRE ASSIGNMENTS    1  1  1  1  1  1  1  1  1  1  1  1  1  1  1  1  1  1  1  1
CENTRE ASSIGNMENTS    1  1  1  1  1  1  1  1  1  1  1  1  1  1  1  1  1  1  1  1
CENTRE ASSIGNMENTS    1  1  1  1  1  1  1  1  1  1  1  1  1  1  1  1  1  1  1  1
CENTRE ASSIGNMENTS    1  1  1  1  1  1  1  1  1  1  1  1  1  1
TYPE ASSIGNMENTS      1  1  1  1  1  1  1  1  1  1  1  1  1  1  1  1  1  1  1  1
TYPE ASSIGNMENTS      1  1  1  1  1  2  2  2  2  3  3  3  3  4  4  4  4  2  3  4
TYPE ASSIGNMENTS      2  3  4  2  3  4  2  3  4  2  3  4  2  3  4  2  3  4  2  3
TYPE ASSIGNMENTS      4  2  3  4  5  6  7  8  9 10  5  6  7  8  9 10  5  6  7  8
TYPE ASSIGNMENTS      9 10  5  6  7  8  9 10  5  6  7  8  9 10  5  6  7  8  9 10
TYPE ASSIGNMENTS      5  6  7  8  9 10  5  6  7  8  9 10 11 12 13 17 14 15 18 19
TYPE ASSIGNMENTS     16 20 11 12 13 17 14 15 18 19 16 20 11 12 13 17 14 15 18 19
TYPE ASSIGNMENTS     16 20 11 12 13 17 14 15 18 19 16 20 11 12 13 17 14 15 18 19
TYPE ASSIGNMENTS     16 20 11 12 13 17 14 15 18 19 16 20 23 29 32 27 22 28 35 34
TYPE ASSIGNMENTS     26 31 33 30 25 24 21 23 29 32 27 22 28 35 34 26 31 33 30 25
TYPE ASSIGNMENTS     24 21 23 29 32 27 22 28 35 34 26 31 33 30 25 24 21 23 29 32
TYPE ASSIGNMENTS     27 22 28 35 34 26 31 33 30 25 24 21 36 37 38 39 40 41 42 43
TYPE ASSIGNMENTS     44 45 46 47 48 49 50 51 52 53 54 55 56 36 37 38 39 40 41 42
TYPE ASSIGNMENTS     43 44 45 46 47 48 49 50 51 52 53 54 55 56
EXPONENTS  0.2114000D+06 0.3166000D+05 0.7202000D+04 0.2040000D+04 0.6664000D+03
EXPONENTS  0.2420000D+03 0.9553000D+02 0.4023000D+02 0.1772000D+02 0.2040000D+04
EXPONENTS  0.6664000D+03 0.2420000D+03 0.9553000D+02 0.4023000D+02 0.1772000D+02
EXPONENTS  0.8005000D+01 0.3538000D+01 0.1458000D+01 0.5887000D+00 0.2324000D+00
EXPONENTS  0.1624900D+02 0.3503300D+02 0.7553100D+02 0.1628450D+03 0.8060000D-01
EXPONENTS  0.2419000D+03 0.5717000D+02 0.1813000D+02 0.6624000D+01 0.2419000D+03
EXPONENTS  0.5717000D+02 0.1813000D+02 0.6624000D+01 0.2419000D+03 0.5717000D+02
EXPONENTS  0.1813000D+02 0.6624000D+01 0.2622000D+01 0.2622000D+01 0.2622000D+01
EXPONENTS  0.1057000D+01 0.1057000D+01 0.1057000D+01 0.4176000D+00 0.4176000D+00
EXPONENTS  0.4176000D+00 0.1574000D+00 0.1574000D+00 0.1574000D+00 0.1454700D+02
EXPONENTS  0.1454700D+02 0.1454700D+02 0.3538000D+02 0.3538000D+02 0.3538000D+02
EXPONENTS  0.8605100D+02 0.8605100D+02 0.8605100D+02 0.2092930D+03 0.2092930D+03
EXPONENTS  0.2092930D+03 0.5500000D-01 0.5500000D-01 0.5500000D-01 0.7760000D+01
EXPONENTS  0.7760000D+01 0.7760000D+01 0.7760000D+01 0.7760000D+01 0.7760000D+01
EXPONENTS  0.3032000D+01 0.3032000D+01 0.3032000D+01 0.3032000D+01 0.3032000D+01
EXPONENTS  0.3032000D+01 0.1185000D+01 0.1185000D+01 0.1185000D+01 0.1185000D+01
EXPONENTS  0.1185000D+01 0.1185000D+01 0.4630000D+00 0.4630000D+00 0.4630000D+00
EXPONENTS  0.4630000D+00 0.4630000D+00 0.4630000D+00 0.1833300D+02 0.1833300D+02
EXPONENTS  0.1833300D+02 0.1833300D+02 0.1833300D+02 0.1833300D+02 0.4763400D+02
EXPONENTS  0.4763400D+02 0.4763400D+02 0.4763400D+02 0.4763400D+02 0.4763400D+02
EXPONENTS  0.1237710D+03 0.1237710D+03 0.1237710D+03 0.1237710D+03 0.1237710D+03
EXPONENTS  0.1237710D+03 0.1720000D+00 0.1720000D+00 0.1720000D+00 0.1720000D+00
EXPONENTS  0.1720000D+00 0.1720000D+00 0.5398000D+01 0.5398000D+01 0.5398000D+01
EXPONENTS  0.5398000D+01 0.5398000D+01 0.5398000D+01 0.5398000D+01 0.5398000D+01
EXPONENTS  0.5398000D+01 0.5398000D+01 0.2078000D+01 0.2078000D+01 0.2078000D+01
EXPONENTS  0.2078000D+01 0.2078000D+01 0.2078000D+01 0.2078000D+01 0.2078000D+01
EXPONENTS  0.2078000D+01 0.2078000D+01 0.8000000D+00 0.8000000D+00 0.8000000D+00
EXPONENTS  0.8000000D+00 0.8000000D+00 0.8000000D+00 0.8000000D+00 0.8000000D+00
EXPONENTS  0.8000000D+00 0.8000000D+00 0.1664600D+02 0.1664600D+02 0.1664600D+02
EXPONENTS  0.1664600D+02 0.1664600D+02 0.1664600D+02 0.1664600D+02 0.1664600D+02
EXPONENTS  0.1664600D+02 0.1664600D+02 0.4941300D+02 0.4941300D+02 0.4941300D+02
EXPONENTS  0.4941300D+02 0.4941300D+02 0.4941300D+02 0.4941300D+02 0.4941300D+02
EXPONENTS  0.4941300D+02 0.4941300D+02 0.3310000D+00 0.3310000D+00 0.3310000D+00
EXPONENTS  0.3310000D+00 0.3310000D+00 0.3310000D+00 0.3310000D+00 0.3310000D+00
EXPONENTS  0.3310000D+00 0.3310000D+00 0.4338000D+01 0.4338000D+01 0.4338000D+01
EXPONENTS  0.4338000D+01 0.4338000D+01 0.4338000D+01 0.4338000D+01 0.4338000D+01
EXPONENTS  0.4338000D+01 0.4338000D+01 0.4338000D+01 0.4338000D+01 0.4338000D+01
EXPONENTS  0.4338000D+01 0.4338000D+01 0.1513000D+01 0.1513000D+01 0.1513000D+01
EXPONENTS  0.1513000D+01 0.1513000D+01 0.1513000D+01 0.1513000D+01 0.1513000D+01
EXPONENTS  0.1513000D+01 0.1513000D+01 0.1513000D+01 0.1513000D+01 0.1513000D+01
EXPONENTS  0.1513000D+01 0.1513000D+01 0.1960900D+02 0.1960900D+02 0.1960900D+02
EXPONENTS  0.1960900D+02 0.1960900D+02 0.1960900D+02 0.1960900D+02 0.1960900D+02
EXPONENTS  0.1960900D+02 0.1960900D+02 0.1960900D+02 0.1960900D+02 0.1960900D+02
EXPONENTS  0.1960900D+02 0.1960900D+02 0.6630000D+00 0.6630000D+00 0.6630000D+00
EXPONENTS  0.6630000D+00 0.6630000D+00 0.6630000D+00 0.6630000D+00 0.6630000D+00
EXPONENTS  0.6630000D+00 0.6630000D+00 0.6630000D+00 0.6630000D+00 0.6630000D+00
EXPONENTS  0.6630000D+00 0.6630000D+00 0.2995000D+01 0.2995000D+01 0.2995000D+01
EXPONENTS  0.2995000D+01 0.2995000D+01 0.2995000D+01 0.2995000D+01 0.2995000D+01
EXPONENTS  0.2995000D+01 0.2995000D+01 0.2995000D+01 0.2995000D+01 0.2995000D+01
EXPONENTS  0.2995000D+01 0.2995000D+01 0.2995000D+01 0.2995000D+01 0.2995000D+01
EXPONENTS  0.2995000D+01 0.2995000D+01 0.2995000D+01 0.1326000D+01 0.1326000D+01
EXPONENTS  0.1326000D+01 0.1326000D+01 0.1326000D+01 0.1326000D+01 0.1326000D+01
EXPONENTS  0.1326000D+01 0.1326000D+01 0.1326000D+01 0.1326000D+01 0.1326000D+01
EXPONENTS  0.1326000D+01 0.1326000D+01 0.1326000D+01 0.1326000D+01 0.1326000D+01
EXPONENTS  0.1326000D+01 0.1326000D+01 0.1326000D+01 0.1326000D+01
MO    1     MO 0.0        OCC NO =    1.9993311  ORB. ENERGY =    0.000000
  0.18403955D+00  0.33909663D+00  0.59217398D+00  0.96003940D+00  0.14709299D+01
  0.20604268D+01  0.25441394D+01  0.24527550D+01  0.14528494D+01  0.49283722D-02
  0.12305196D-01  0.56878563D-01  0.15649408D+00  0.42815383D+00  0.80353370D+00
  0.95281249D+00  0.99477304D-01 -0.19380123D-02  0.42049463D-03 -0.77070513D-04
  0.12587394D-01  0.45829496D-02  0.42517807D-02  0.73860573D-03  0.83605201D-05
  0.00000000D+00  0.00000000D+00  0.00000000D+00  0.00000000D+00  0.00000000D+00
  0.00000000D+00  0.00000000D+00  0.00000000D+00  0.00000000D+00  0.00000000D+00
  0.00000000D+00  0.00000000D+00  0.00000000D+00  0.00000000D+00  0.00000000D+00
  0.00000000D+00  0.00000000D+00  0.00000000D+00  0.00000000D+00  0.00000000D+00
  0.00000000D+00  0.00000000D+00  0.00000000D+00  0.00000000D+00  0.00000000D+00
  0.00000000D+00  0.00000000D+00  0.00000000D+00  0.00000000D+00  0.00000000D+00
  0.00000000D+00  0.00000000D+00  0.00000000D+00  0.00000000D+00  0.00000000D+00
  0.00000000D+00  0.00000000D+00  0.00000000D+00  0.00000000D+00 -0.21371475D-13
 -0.33413775D-13  0.54785250D-13 -0.71930259D-30 -0.16881418D-30 -0.10070400D-13
  0.33638765D-14  0.10007853D-13 -0.13371729D-13  0.28309696D-30  0.68677455D-31
  0.31457557D-14 -0.64244789D-16 -0.25206689D-14  0.25849137D-14 -0.82550059D-31
 -0.20578218D-31  0.17247427D-16  0.16563806D-16  0.34143461D-15 -0.35799841D-15
  0.10548680D-31  0.25464982D-32 -0.36528062D-15  0.83669120D-14  0.98917596D-13
 -0.10728451D-12  0.44892747D-29  0.13191111D-29  0.22524481D-13  0.19800648D-12
 -0.18874606D-12 -0.92604158D-14 -0.23650648D-28 -0.75901009D-29 -0.17424318D-13
 -0.17245238D-11  0.90558753D-12  0.81893626D-12  0.11123448D-27  0.35809421D-28
 -0.16109370D-12 -0.19878763D-17 -0.22795379D-16  0.24783255D-16 -0.60543877D-33
 -0.12653540D-33  0.61896672D-16  0.00000000D+00  0.00000000D+00  0.00000000D+00
  0.00000000D+00  0.00000000D+00  0.00000000D+00  0.00000000D+00  0.00000000D+00
  0.00000000D+00  0.00000000D+00  0.00000000D+00  0.00000000D+00  0.00000000D+00
  0.00000000D+00  0.00000000D+00  0.00000000D+00  0.00000000D+00  0.00000000D+00
  0.00000000D+00  0.00000000D+00  0.00000000D+00  0.00000000D+00  0.00000000D+00
  0.00000000D+00  0.00000000D+00  0.00000000D+00  0.00000000D+00  0.00000000D+00
  0.00000000D+00  0.00000000D+00  0.00000000D+00  0.00000000D+00  0.00000000D+00
  0.00000000D+00  0.00000000D+00  0.00000000D+00  0.00000000D+00  0.00000000D+00
  0.00000000D+00  0.00000000D+00  0.00000000D+00  0.00000000D+00  0.00000000D+00
  0.00000000D+00  0.00000000D+00  0.00000000D+00  0.00000000D+00  0.00000000D+00
  0.00000000D+00  0.00000000D+00  0.00000000D+00  0.00000000D+00  0.00000000D+00
  0.00000000D+00  0.00000000D+00  0.00000000D+00  0.00000000D+00  0.00000000D+00
  0.00000000D+00  0.00000000D+00 -0.21061031D-13 -0.62073001D-13  0.77041441D-13
  0.44259306D-13 -0.23640072D-13 -0.28418802D-30  0.16805086D-29  0.59484158D-30
  0.18778138D-29  0.49324746D-13  0.53441086D-13  0.64798988D-13  0.85907491D-31
 -0.24379834D-29 -0.19020622D-13 -0.28275247D-14  0.60067918D-14  0.77657181D-14
 -0.42829640D-14 -0.14646776D-14 -0.43344209D-31  0.24998725D-31  0.13430994D-31
  0.51014666D-30  0.91994303D-14 -0.51714834D-14  0.10223475D-14  0.38867211D-31
 -0.51847957D-30 -0.17036296D-14  0.16613548D-12  0.10298429D-11 -0.15793904D-11
 -0.73429890D-12  0.86751354D-12 -0.99159937D-30 -0.29781157D-28 -0.95976638D-29
  0.54118428D-28  0.58257756D-12 -0.88663214D-12 -0.36256908D-11  0.41908206D-29
 -0.44191376D-28  0.50718554D-12  0.20144581D-15 -0.46960596D-15 -0.47803005D-15
  0.33483854D-15  0.84765009D-16  0.13054675D-32 -0.96785389D-32 -0.41696155D-32
 -0.49818491D-31 -0.73064479D-15  0.40430226D-15 -0.30560005D-16  0.84404302D-34
  0.53044670D-31  0.12686747D-15  0.00000000D+00  0.00000000D+00  0.00000000D+00
  0.00000000D+00  0.00000000D+00  0.00000000D+00  0.00000000D+00  0.00000000D+00
  0.00000000D+00  0.00000000D+00  0.00000000D+00  0.00000000D+00  0.00000000D+00
  0.00000000D+00  0.00000000D+00  0.00000000D+00  0.00000000D+00  0.00000000D+00
  0.00000000D+00  0.00000000D+00  0.00000000D+00  0.00000000D+00  0.00000000D+00
  0.00000000D+00  0.00000000D+00  0.00000000D+00  0.00000000D+00  0.00000000D+00
  0.00000000D+00  0.00000000D+00  0.00000000D+00  0.00000000D+00  0.00000000D+00
  0.00000000D+00  0.00000000D+00  0.00000000D+00  0.00000000D+00  0.00000000D+00
  0.00000000D+00  0.00000000D+00  0.00000000D+00  0.00000000D+00
MO    2     MO 0.0        OCC NO =    0.0002363  ORB. ENERGY =    0.000000
  0.31817307D+00  0.58624037D+00  0.10237680D+01  0.16597447D+01  0.25429875D+01
  0.35621273D+01  0.43983841D+01  0.42403961D+01  0.25117294D+01 -0.11833537D-01
 -0.29546062D-01 -0.13657137D+00 -0.37575863D+00 -0.10280421D+01 -0.19293684D+01
 -0.22878024D+01 -0.36568560D+00  0.17182601D-01 -0.40247558D-02  0.79105030D-03
 -0.19487967D+01  0.29473012D+01  0.43927252D+01  0.23990263D+01 -0.88417865D-04
  0.00000000D+00  0.00000000D+00  0.00000000D+00  0.00000000D+00  0.00000000D+00
  0.00000000D+00  0.00000000D+00  0.00000000D+00  0.00000000D+00  0.00000000D+00
  0.00000000D+00  0.00000000D+00  0.00000000D+00  0.00000000D+00  0.00000000D+00
  0.00000000D+00  0.00000000D+00  0.00000000D+00  0.00000000D+00  0.00000000D+00
  0.00000000D+00  0.00000000D+00  0.00000000D+00  0.00000000D+00  0.00000000D+00
  0.00000000D+00  0.00000000D+00  0.00000000D+00  0.00000000D+00  0.00000000D+00
  0.00000000D+00  0.00000000D+00  0.00000000D+00  0.00000000D+00  0.00000000D+00
  0.00000000D+00  0.00000000D+00  0.00000000D+00  0.00000000D+00 -0.45194143D-13
  0.12286072D-12 -0.77666582D-13  0.11301061D-30  0.26522461D-31  0.13663761D-11
  0.32696539D-13 -0.23729972D-13 -0.89665676D-14 -0.44481497D-31 -0.10791106D-31
 -0.41079491D-12 -0.73200906D-14  0.46575345D-14  0.26625561D-14  0.12970021D-31
  0.32332057D-32  0.52463602D-14  0.10975987D-14 -0.83163350D-15 -0.26596521D-15
 -0.16573649D-32 -0.40009702D-33  0.46261853D-13 -0.91145634D-12 -0.31064102D-12
  0.12220974D-11 -0.70694084D-30 -0.20773431D-30 -0.25624950D-11  0.31218542D-11
  0.20085648D-12 -0.33227107D-11  0.37060186D-29  0.11896041D-29  0.36622799D-11
 -0.26977730D-11  0.41988570D-12  0.22778873D-11 -0.17495506D-28 -0.56320018D-29
 -0.83720820D-12 -0.75193111D-16  0.66707621D-16  0.84854900D-17  0.95124034D-34
  0.19880877D-34 -0.81176663D-14  0.00000000D+00  0.00000000D+00  0.00000000D+00
  0.00000000D+00  0.00000000D+00  0.00000000D+00  0.00000000D+00  0.00000000D+00
  0.00000000D+00  0.00000000D+00  0.00000000D+00  0.00000000D+00  0.00000000D+00
  0.00000000D+00  0.00000000D+00  0.00000000D+00  0.00000000D+00  0.00000000D+00
  0.00000000D+00  0.00000000D+00  0.00000000D+00  0.00000000D+00  0.00000000D+00
  0.00000000D+00  0.00000000D+00  0.00000000D+00  0.00000000D+00  0.00000000D+00
  0.00000000D+00  0.00000000D+00  0.00000000D+00  0.00000000D+00  0.00000000D+00
  0.00000000D+00  0.00000000D+00  0.00000000D+00  0.00000000D+00  0.00000000D+00
  0.00000000D+00  0.00000000D+00  0.00000000D+00  0.00000000D+00  0.00000000D+00
  0.00000000D+00  0.00000000D+00  0.00000000D+00  0.00000000D+00  0.00000000D+00
  0.00000000D+00  0.00000000D+00  0.00000000D+00  0.00000000D+00  0.00000000D+00
  0.00000000D+00  0.00000000D+00  0.00000000D+00  0.00000000D+00  0.00000000D+00
  0.00000000D+00  0.00000000D+00 -0.35499135D-11  0.78269313D-11  0.10786280D-10
 -0.55994788D-11 -0.35594718D-11  0.44649431D-31 -0.26403046D-30 -0.93457548D-31
 -0.29502521D-30  0.10513201D-10 -0.66823574D-11  0.10570551D-10 -0.13496915D-31
  0.38303536D-30 -0.35139588D-11  0.53921544D-13 -0.75866507D-12 -0.17312336D-12
  0.54074973D-12  0.57490724D-13  0.68099434D-32 -0.39276008D-32 -0.21101766D-32
 -0.80150771D-31 -0.15040591D-12  0.65374603D-12 -0.17182099D-12 -0.61065512D-32
  0.81459971D-31  0.53704483D-13  0.17887522D-10 -0.12932220D-09 -0.57178391D-10
  0.93298752D-10  0.18694169D-10  0.15589338D-30  0.46793406D-29  0.15080124D-29
 -0.85045490D-29 -0.50146744D-10  0.10807035D-09 -0.54986621D-10 -0.65856418D-30
  0.69447688D-29  0.17522227D-10 -0.67710901D-14  0.59358787D-13  0.21115778D-13
 -0.42231606D-13 -0.70487392D-14 -0.20510615D-33  0.15206229D-32  0.65510036D-33
  0.78271363D-32  0.19510762D-13 -0.51381543D-13  0.21176657D-13 -0.13260633D-34
 -0.83340106D-32 -0.67812365D-14  0.00000000D+00  0.00000000D+00  0.00000000D+00
  0.00000000D+00  0.00000000D+00  0.00000000D+00  0.00000000D+00  0.00000000D+00
  0.00000000D+00  0.00000000D+00  0.00000000D+00  0.00000000D+00  0.00000000D+00
  0.00000000D+00  0.00000000D+00  0.00000000D+00  0.00000000D+00  0.00000000D+00
  0.00000000D+00  0.00000000D+00  0.00000000D+00  0.00000000D+00  0.00000000D+00
  0.00000000D+00  0.00000000D+00  0.00000000D+00  0.00000000D+00  0.00000000D+00
  0.00000000D+00  0.00000000D+00  0.00000000D+00  0.00000000D+00  0.00000000D+00
  0.00000000D+00  0.00000000D+00  0.00000000D+00  0.00000000D+00  0.00000000D+00
  0.00000000D+00  0.00000000D+00  0.00000000D+00  0.00000000D+00
MO    3     MO 0.0        OCC NO =    0.0001274  ORB. ENERGY =    0.000000
  0.00000000D+00  0.00000000D+00  0.00000000D+00  0.00000000D+00  0.00000000D+00
  0.00000000D+00  0.00000000D+00  0.00000000D+00  0.00000000D+00  0.00000000D+00
  0.00000000D+00  0.00000000D+00  0.00000000D+00  0.00000000D+00  0.00000000D+00
  0.00000000D+00  0.00000000D+00  0.00000000D+00  0.00000000D+00  0.00000000D+00
  0.00000000D+00  0.00000000D+00  0.00000000D+00  0.00000000D+00  0.00000000D+00
  0.00000000D+00  0.00000000D+00  0.00000000D+00  0.00000000D+00  0.00000000D+00
  0.00000000D+00  0.00000000D+00  0.00000000D+00  0.60557577D+00  0.80209867D+00
  0.90174765D+00  0.83330369D+00  0.00000000D+00  0.00000000D+00  0.33430018D-01
  0.00000000D+00  0.00000000D+00 -0.52419087D-02  0.00000000D+00  0.00000000D+00
  0.82844358D-03  0.00000000D+00  0.00000000D+00 -0.10522803D-03  0.00000000D+00
  0.00000000D+00  0.15996537D+02  0.00000000D+00  0.00000000D+00  0.59852540D+02
  0.00000000D+00  0.00000000D+00  0.52430282D+02  0.00000000D+00  0.00000000D+00
  0.32671700D+02  0.00000000D+00  0.00000000D+00  0.84003404D-05  0.00000000D+00
  0.00000000D+00  0.00000000D+00  0.00000000D+00  0.00000000D+00  0.00000000D+00
  0.00000000D+00  0.00000000D+00  0.00000000D+00  0.00000000D+00  0.00000000D+00
  0.00000000D+00  0.00000000D+00  0.00000000D+00  0.00000000D+00  0.00000000D+00
  0.00000000D+00  0.00000000D+00  0.00000000D+00  0.00000000D+00  0.00000000D+00
  0.00000000D+00  0.00000000D+00  0.00000000D+00  0.00000000D+00  0.00000000D+00
  0.00000000D+00  0.00000000D+00  0.00000000D+00  0.00000000D+00  0.00000000D+00
  0.00000000D+00  0.00000000D+00  0.00000000D+00  0.00000000D+00  0.00000000D+00
  0.00000000D+00  0.00000000D+00  0.00000000D+00  0.00000000D+00  0.00000000D+00
  0.00000000D+00  0.00000000D+00  0.00000000D+00  0.00000000D+00  0.00000000D+00
  0.00000000D+00  0.00000000D+00  0.00000000D+00  0.00000000D+00  0.84540649D-12
  0.00000000D+00  0.00000000D+00 -0.12310465D-11  0.00000000D+00  0.00000000D+00
 -0.13051730D-11  0.00000000D+00  0.00000000D+00  0.00000000D+00  0.11387237D-12
  0.00000000D+00  0.00000000D+00 -0.17737776D-12  0.00000000D+00  0.00000000D+00
 -0.16423936D-12  0.00000000D+00  0.00000000D+00  0.00000000D+00 -0.45874655D-14
  0.00000000D+00  0.00000000D+00  0.75628324D-14  0.00000000D+00  0.00000000D+00
  0.61995642D-14  0.00000000D+00  0.00000000D+00  0.00000000D+00 -0.26899402D-11
  0.00000000D+00  0.00000000D+00  0.34468240D-11  0.00000000D+00  0.00000000D+00
  0.46229966D-11  0.00000000D+00  0.00000000D+00  0.00000000D+00  0.91837948D-11
  0.00000000D+00  0.00000000D+00 -0.99902290D-11  0.00000000D+00  0.00000000D+00
 -0.17561155D-10  0.00000000D+00  0.00000000D+00  0.00000000D+00  0.11698891D-15
  0.00000000D+00  0.00000000D+00 -0.21885628D-15  0.00000000D+00  0.00000000D+00
 -0.13211047D-15  0.00000000D+00  0.00000000D+00  0.00000000D+00  0.00000000D+00
  0.00000000D+00  0.00000000D+00  0.00000000D+00  0.00000000D+00  0.00000000D+00
  0.00000000D+00  0.00000000D+00  0.00000000D+00  0.00000000D+00  0.00000000D+00
  0.00000000D+00  0.00000000D+00  0.00000000D+00  0.00000000D+00  0.00000000D+00
  0.00000000D+00  0.00000000D+00  0.00000000D+00  0.00000000D+00  0.00000000D+00
  0.00000000D+00  0.00000000D+00  0.00000000D+00  0.00000000D+00  0.00000000D+00
  0.00000000D+00  0.00000000D+00  0.00000000D+00  0.00000000D+00  0.00000000D+00
  0.00000000D+00  0.00000000D+00  0.00000000D+00  0.00000000D+00  0.00000000D+00
  0.00000000D+00  0.00000000D+00  0.00000000D+00  0.00000000D+00  0.00000000D+00
  0.00000000D+00  0.00000000D+00  0.00000000D+00  0.00000000D+00  0.00000000D+00
  0.00000000D+00  0.00000000D+00  0.00000000D+00  0.00000000D+00  0.00000000D+00
  0.00000000D+00  0.00000000D+00  0.00000000D+00  0.00000000D+00  0.00000000D+00
  0.00000000D+00  0.00000000D+00  0.27362483D-12  0.00000000D+00 -0.13653698D-11
  0.00000000D+00 -0.10353011D-11  0.00000000D+00  0.00000000D+00  0.00000000D+00
  0.00000000D+00  0.00000000D+00  0.00000000D+00 -0.13708784D-11  0.00000000D+00
  0.10307916D-10  0.00000000D+00  0.00000000D+00  0.00000000D+00  0.00000000D+00
 -0.10325468D-11  0.00000000D+00  0.00000000D+00  0.14775075D-14  0.00000000D+00
 -0.68581264D-14  0.00000000D+00  0.22394077D-12  0.00000000D+00  0.00000000D+00
  0.00000000D+00  0.00000000D+00  0.00000000D+00  0.00000000D+00 -0.79169491D-14
  0.00000000D+00 -0.13230703D-11  0.00000000D+00  0.00000000D+00  0.00000000D+00
  0.00000000D+00  0.22447019D-12  0.00000000D+00  0.00000000D+00
MO    4     MO 0.0        OCC NO =    0.0001274  ORB. ENERGY =    0.000000
  0.00000000D+00  0.00000000D+00  0.00000000D+00  0.00000000D+00  0.00000000D+00
  0.00000000D+00  0.00000000D+00  0.00000000D+00  0.00000000D+00  0.00000000D+00
  0.00000000D+00  0.00000000D+00  0.00000000D+00  0.00000000D+00  0.00000000D+00
  0.00000000D+00  0.00000000D+00  0.00000000D+00  0.00000000D+00  0.00000000D+00
  0.00000000D+00  0.00000000D+00  0.00000000D+00  0.00000000D+00  0.00000000D+00
  0.00000000D+00  0.00000000D+00  0.00000000D+00  0.00000000D+00  0.60557577D+00
  0.80209867D+00  0.90174765D+00  0.83330369D+00  0.00000000D+00  0.00000000D+00
  0.00000000D+00  0.00000000D+00  0.00000000D+00  0.33430018D-01  0.00000000D+00
  0.00000000D+00 -0.52419087D-02  0.00000000D+00  0.00000000D+00  0.82844358D-03
  0.00000000D+00  0.00000000D+00 -0.10522803D-03  0.00000000D+00  0.00000000D+00
  0.15996537D+02  0.00000000D+00  0.00000000D+00  0.59852540D+02  0.00000000D+00
  0.00000000D+00  0.52430282D+02  0.00000000D+00  0.00000000D+00  0.32671700D+02
  0.00000000D+00  0.00000000D+00  0.84003404D-05  0.00000000D+00  0.00000000D+00
  0.00000000D+00  0.00000000D+00  0.00000000D+00  0.00000000D+00  0.00000000D+00
  0.00000000D+00  0.00000000D+00  0.00000000D+00  0.00000000D+00  0.00000000D+00
  0.00000000D+00  0.00000000D+00  0.00000000D+00  0.00000000D+00  0.00000000D+00
  0.00000000D+00  0.00000000D+00  0.00000000D+00  0.00000000D+00  0.00000000D+00
  0.00000000D+00  0.00000000D+00  0.00000000D+00  0.00000000D+00  0.00000000D+00
  0.00000000D+00  0.00000000D+00  0.00000000D+00  0.00000000D+00  0.00000000D+00
  0.00000000D+00  0.00000000D+00  0.00000000D+00  0.00000000D+00  0.00000000D+00
  0.00000000D+00  0.00000000D+00  0.00000000D+00  0.00000000D+00  0.00000000D+00
  0.00000000D+00  0.00000000D+00  0.00000000D+00  0.00000000D+00  0.00000000D+00
  0.00000000D+00  0.00000000D+00  0.00000000D+00  0.89347969D-12  0.00000000D+00
  0.00000000D+00 -0.13465054D-11  0.00000000D+00  0.00000000D+00 -0.13339337D-11
  0.00000000D+00  0.00000000D+00  0.00000000D+00  0.10872999D-12  0.00000000D+00
  0.00000000D+00 -0.16040889D-12  0.00000000D+00  0.00000000D+00 -0.16578109D-12
  0.00000000D+00  0.00000000D+00  0.00000000D+00 -0.42446167D-14  0.00000000D+00
  0.00000000D+00  0.61209269D-14  0.00000000D+00  0.00000000D+00  0.66129231D-14
  0.00000000D+00  0.00000000D+00  0.00000000D+00 -0.33350692D-11  0.00000000D+00
  0.00000000D+00  0.51951499D-11  0.00000000D+00  0.00000000D+00  0.48100576D-11
  0.00000000D+00  0.00000000D+00  0.00000000D+00  0.14671796D-10  0.00000000D+00
  0.00000000D+00 -0.27049383D-10  0.00000000D+00  0.00000000D+00 -0.16966006D-10
  0.00000000D+00  0.00000000D+00  0.00000000D+00  0.55493249D-16  0.00000000D+00
  0.00000000D+00  0.43788055D-17  0.00000000D+00  0.00000000D+00 -0.17085855D-15
  0.00000000D+00  0.00000000D+00  0.00000000D+00  0.00000000D+00  0.00000000D+00
  0.00000000D+00  0.00000000D+00  0.00000000D+00  0.00000000D+00  0.00000000D+00
  0.00000000D+00  0.00000000D+00  0.00000000D+00  0.00000000D+00  0.00000000D+00
  0.00000000D+00  0.00000000D+00  0.00000000D+00  0.00000000D+00  0.00000000D+00
  0.00000000D+00  0.00000000D+00  0.00000000D+00  0.00000000D+00  0.00000000D+00
  0.00000000D+00  0.00000000D+00  0.00000000D+00  0.00000000D+00  0.00000000D+00
  0.00000000D+00  0.00000000D+00  0.00000000D+00  0.00000000D+00  0.00000000D+00
  0.00000000D+00  0.00000000D+00  0.00000000D+00  0.00000000D+00  0.00000000D+00
  0.00000000D+00  0.00000000D+00  0.00000000D+00  0.00000000D+00  0.00000000D+00
  0.00000000D+00  0.00000000D+00  0.00000000D+00  0.00000000D+00  0.00000000D+00
  0.00000000D+00  0.00000000D+00  0.00000000D+00  0.00000000D+00  0.00000000D+00
  0.00000000D+00  0.00000000D+00  0.00000000D+00  0.00000000D+00  0.00000000D+00
  0.00000000D+00  0.00000000D+00  0.00000000D+00 -0.10387120D-11  0.00000000D+00
 -0.13863921D-11  0.00000000D+00  0.27528871D-12  0.00000000D+00  0.00000000D+00
  0.00000000D+00  0.00000000D+00  0.00000000D+00  0.00000000D+00  0.10391448D-10
  0.00000000D+00 -0.13664950D-11  0.00000000D+00  0.00000000D+00  0.00000000D+00
  0.00000000D+00 -0.10486606D-11  0.00000000D+00  0.00000000D+00  0.22357103D-12
  0.00000000D+00 -0.81362108D-14  0.00000000D+00  0.15625639D-14  0.00000000D+00
  0.00000000D+00  0.00000000D+00  0.00000000D+00  0.00000000D+00  0.00000000D+00
 -0.13170175D-11  0.00000000D+00 -0.74894282D-14  0.00000000D+00  0.00000000D+00
  0.00000000D+00  0.00000000D+00  0.22324764D-12  0.00000000D+00
MO    5     MO 0.0        OCC NO =    0.0001274  ORB. ENERGY =    0.000000
  0.00000000D+00  0.00000000D+00  0.00000000D+00  0.00000000D+00  0.00000000D+00
  0.00000000D+00  0.00000000D+00  0.00000000D+00  0.00000000D+00  0.00000000D+00
  0.00000000D+00  0.00000000D+00  0.00000000D+00  0.00000000D+00  0.00000000D+00
  0.00000000D+00  0.00000000D+00  0.00000000D+00  0.00000000D+00  0.00000000D+00
  0.00000000D+00  0.00000000D+00  0.00000000D+00  0.00000000D+00  0.00000000D+00
  0.60557577D+00  0.80209867D+00  0.90174765D+00  0.83330369D+00  0.00000000D+00
  0.00000000D+00  0.00000000D+00  0.00000000D+00  0.00000000D+00  0.00000000D+00
  0.00000000D+00  0.00000000D+00  0.33430018D-01  0.00000000D+00  0.00000000D+00
 -0.52419087D-02  0.00000000D+00  0.00000000D+00  0.82844358D-03  0.00000000D+00
  0.00000000D+00 -0.10522803D-03  0.00000000D+00  0.00000000D+00  0.15996537D+02
  0.00000000D+00  0.00000000D+00  0.59852540D+02  0.00000000D+00  0.00000000D+00
  0.52430282D+02  0.00000000D+00  0.00000000D+00  0.32671700D+02  0.00000000D+00
  0.00000000D+00  0.84003404D-05  0.00000000D+00  0.00000000D+00  0.00000000D+00
  0.00000000D+00  0.00000000D+00  0.00000000D+00  0.00000000D+00  0.00000000D+00
  0.00000000D+00  0.00000000D+00  0.00000000D+00  0.00000000D+00  0.00000000D+00
  0.00000000D+00  0.00000000D+00  0.00000000D+00  0.00000000D+00  0.00000000D+00
  0.00000000D+00  0.00000000D+00  0.00000000D+00  0.00000000D+00  0.00000000D+00
  0.00000000D+00  0.00000000D+00  0.00000000D+00  0.00000000D+00  0.00000000D+00
  0.00000000D+00  0.00000000D+00  0.00000000D+00  0.00000000D+00  0.00000000D+00
  0.00000000D+00  0.00000000D+00  0.00000000D+00  0.00000000D+00  0.00000000D+00
  0.00000000D+00  0.00000000D+00  0.00000000D+00  0.00000000D+00  0.00000000D+00
  0.00000000D+00  0.00000000D+00  0.00000000D+00  0.00000000D+00  0.00000000D+00
  0.00000000D+00  0.00000000D+00  0.87176165D-12  0.00000000D+00  0.00000000D+00
 -0.12968156D-11  0.00000000D+00  0.00000000D+00 -0.13184693D-11  0.00000000D+00
  0.00000000D+00  0.00000000D+00  0.11052900D-12  0.00000000D+00  0.00000000D+00
 -0.16698991D-12  0.00000000D+00  0.00000000D+00 -0.16459709D-12  0.00000000D+00
  0.00000000D+00  0.00000000D+00 -0.43006978D-14  0.00000000D+00  0.00000000D+00
  0.64365913D-14  0.00000000D+00  0.00000000D+00  0.64655020D-14  0.00000000D+00
  0.00000000D+00  0.00000000D+00 -0.30206949D-11  0.00000000D+00  0.00000000D+00
  0.46159302D-11  0.00000000D+00  0.00000000D+00  0.44461547D-11  0.00000000D+00
  0.00000000D+00  0.00000000D+00  0.11056950D-10  0.00000000D+00  0.00000000D+00
 -0.23248991D-10  0.00000000D+00  0.00000000D+00 -0.99218601D-11  0.00000000D+00
  0.00000000D+00  0.00000000D+00  0.69670434D-16  0.00000000D+00  0.00000000D+00
 -0.43690583D-16  0.00000000D+00  0.00000000D+00 -0.16532072D-15  0.00000000D+00
  0.00000000D+00  0.00000000D+00  0.00000000D+00  0.00000000D+00  0.00000000D+00
  0.00000000D+00  0.00000000D+00  0.00000000D+00  0.00000000D+00  0.00000000D+00
  0.00000000D+00  0.00000000D+00  0.00000000D+00  0.00000000D+00  0.00000000D+00
  0.00000000D+00  0.00000000D+00  0.00000000D+00  0.00000000D+00  0.00000000D+00
  0.00000000D+00  0.00000000D+00  0.00000000D+00  0.00000000D+00  0.00000000D+00
  0.00000000D+00  0.00000000D+00  0.00000000D+00  0.00000000D+00  0.00000000D+00
  0.00000000D+00  0.00000000D+00  0.00000000D+00  0.00000000D+00  0.00000000D+00
  0.00000000D+00  0.00000000D+00  0.00000000D+00  0.00000000D+00  0.00000000D+00
  0.00000000D+00  0.00000000D+00  0.00000000D+00  0.00000000D+00  0.00000000D+00
  0.00000000D+00  0.00000000D+00  0.00000000D+00  0.00000000D+00  0.00000000D+00
  0.00000000D+00  0.00000000D+00  0.00000000D+00  0.00000000D+00  0.00000000D+00
  0.00000000D+00  0.00000000D+00  0.00000000D+00  0.00000000D+00  0.00000000D+00
  0.00000000D+00  0.00000000D+00  0.00000000D+00  0.00000000D+00  0.00000000D+00
  0.00000000D+00  0.00000000D+00  0.00000000D+00 -0.10463549D-11  0.00000000D+00
  0.10375964D-10  0.00000000D+00 -0.10422755D-11  0.00000000D+00  0.00000000D+00
  0.00000000D+00  0.00000000D+00 -0.13659447D-11  0.00000000D+00 -0.13741036D-11
  0.00000000D+00  0.00000000D+00  0.27400483D-12  0.00000000D+00  0.00000000D+00
  0.00000000D+00  0.00000000D+00  0.00000000D+00  0.00000000D+00  0.22302076D-12
  0.00000000D+00 -0.13180751D-11  0.00000000D+00  0.22320043D-12  0.00000000D+00
  0.00000000D+00  0.00000000D+00  0.00000000D+00 -0.66831478D-14  0.00000000D+00
 -0.70424964D-14  0.00000000D+00  0.00000000D+00  0.13725644D-14
MO    6     MO 0.0        OCC NO =    0.0000057  ORB. ENERGY =    0.000000
  0.61387744D+00  0.11310817D+01  0.19752398D+01  0.32022819D+01  0.49063946D+01
  0.68727048D+01  0.84861637D+01  0.81813444D+01  0.48460859D+01  0.20065802D-01
  0.50100442D-01  0.23158031D+00  0.63716355D+00  0.17432226D+01  0.32715768D+01
  0.38793634D+01  0.49840267D+00  0.11463740D-01 -0.32214835D-02  0.71450682D-03
 -0.12602142D+02 -0.22212368D+02  0.43610926D+01  0.14358698D+02 -0.83519395D-04
  0.00000000D+00  0.00000000D+00  0.00000000D+00  0.00000000D+00  0.00000000D+00