 Title Card Required
GAUSSIAN            166 MOL ORBITALS    274 PRIMITIVES        1 NUCLEI
  N    1    (CENTRE  1)   0.00000000  0.00000000  0.00000000  CHARGE =  7.0
CENTRE ASSIGNMENTS    1  1  1  1  1  1  1  1  1  1  1  1  1  1  1  1  1  1  1  1
CENTRE ASSIGNMENTS    1  1  1  1  1  1  1  1  1  1  1  1  1  1  1  1  1  1  1  1
CENTRE ASSIGNMENTS    1  1  1  1  1  1  1  1  1  1  1  1  1  1  1  1  1  1  1  1
CENTRE ASSIGNMENTS    1  1  1  1  1  1  1  1  1  1  1  1  1  1  1  1  1  1  1  1
CENTRE ASSIGNMENTS    1  1  1  1  1  1  1  1  1  1  1  1  1  1  1  1  1  1  1  1
CENTRE ASSIGNMENTS    1  1  1  1  1  1  1  1  1  1  1  1  1  1  1  1  1  1  1  1
CENTRE ASSIGNMENTS    1  1  1  1  1  1  1  1  1  1  1  1  1  1  1  1  1  1  1  1
CENTRE ASSIGNMENTS    1  1  1  1  1  1  1  1  1  1  1  1  1  1  1  1  1  1  1  1
CENTRE ASSIGNMENTS    1  1  1  1  1  1  1  1  1  1  1  1  1  1  1  1  1  1  1  1
CENTRE ASSIGNMENTS    1  1  1  1  1  1  1  1  1  1  1  1  1  1  1  1  1  1  1  1
CENTRE ASSIGNMENTS    1  1  1  1  1  1  1  1  1  1  1  1  1  1  1  1  1  1  1  1
CENTRE ASSIGNMENTS    1  1  1  1  1  1  1  1  1  1  1  1  1  1  1  1  1  1  1  1
CENTRE ASSIGNMENTS    1  1  1  1  1  1  1  1  1  1  1  1  1  1  1  1  1  1  1  1
CENTRE ASSIGNMENTS    1  1  1  1  1  1  1  1  1  1  1  1  1  1
TYPE ASSIGNMENTS      1  1  1  1  1  1  1  1  1  1  1  1  1  1  1  1  1  1  1  1
TYPE ASSIGNMENTS      1  1  1  1  1  2  2  2  2  3  3  3  3  4  4  4  4  2  3  4
TYPE ASSIGNMENTS      2  3  4  2  3  4  2  3  4  2  3  4  2  3  4  2  3  4  2  3
TYPE ASSIGNMENTS      4  2  3  4  5  6  7  8  9 10  5  6  7  8  9 10  5  6  7  8
TYPE ASSIGNMENTS      9 10  5  6  7  8  9 10  5  6  7  8  9 10  5  6  7  8  9 10
TYPE ASSIGNMENTS      5  6  7  8  9 10  5  6  7  8  9 10 11 12 13 17 14 15 18 19
TYPE ASSIGNMENTS     16 20 11 12 13 17 14 15 18 19 16 20 11 12 13 17 14 15 18 19
TYPE ASSIGNMENTS     16 20 11 12 13 17 14 15 18 19 16 20 11 12 13 17 14 15 18 19
TYPE ASSIGNMENTS     16 20 11 12 13 17 14 15 18 19 16 20 23 29 32 27 22 28 35 34
TYPE ASSIGNMENTS     26 31 33 30 25 24 21 23 29 32 27 22 28 35 34 26 31 33 30 25
TYPE ASSIGNMENTS     24 21 23 29 32 27 22 28 35 34 26 31 33 30 25 24 21 23 29 32
TYPE ASSIGNMENTS     27 22 28 35 34 26 31 33 30 25 24 21 36 37 38 39 40 41 42 43
TYPE ASSIGNMENTS     44 45 46 47 48 49 50 51 52 53 54 55 56 36 37 38 39 40 41 42
TYPE ASSIGNMENTS     43 44 45 46 47 48 49 50 51 52 53 54 55 56
EXPONENTS  0.1292000D+06 0.1935000D+05 0.4404000D+04 0.1248000D+04 0.4080000D+03
EXPONENTS  0.1482000D+03 0.5850000D+02 0.2459000D+02 0.1081000D+02 0.1248000D+04
EXPONENTS  0.4080000D+03 0.1482000D+03 0.5850000D+02 0.2459000D+02 0.1081000D+02
EXPONENTS  0.4882000D+01 0.2195000D+01 0.8715000D+00 0.3504000D+00 0.1397000D+00
EXPONENTS  0.1042200D+02 0.2259600D+02 0.4899300D+02 0.1062260D+03 0.5180000D-01
EXPONENTS  0.1470000D+03 0.3476000D+02 0.1100000D+02 0.3995000D+01 0.1470000D+03
EXPONENTS  0.3476000D+02 0.1100000D+02 0.3995000D+01 0.1470000D+03 0.3476000D+02
EXPONENTS  0.1100000D+02 0.3995000D+01 0.1587000D+01 0.1587000D+01 0.1587000D+01
EXPONENTS  0.6533000D+00 0.6533000D+00 0.6533000D+00 0.2686000D+00 0.2686000D+00
EXPONENTS  0.2686000D+00 0.1067000D+00 0.1067000D+00 0.1067000D+00 0.8766000D+01
EXPONENTS  0.8766000D+01 0.8766000D+01 0.2167600D+02 0.2167600D+02 0.2167600D+02
EXPONENTS  0.5360000D+02 0.5360000D+02 0.5360000D+02 0.1325440D+03 0.1325440D+03
EXPONENTS  0.1325440D+03 0.3690000D-01 0.3690000D-01 0.3690000D-01 0.4647000D+01
EXPONENTS  0.4647000D+01 0.4647000D+01 0.4647000D+01 0.4647000D+01 0.4647000D+01
EXPONENTS  0.1813000D+01 0.1813000D+01 0.1813000D+01 0.1813000D+01 0.1813000D+01
EXPONENTS  0.1813000D+01 0.7070000D+00 0.7070000D+00 0.7070000D+00 0.7070000D+00
EXPONENTS  0.7070000D+00 0.7070000D+00 0.2760000D+00 0.2760000D+00 0.2760000D+00
EXPONENTS  0.2760000D+00 0.2760000D+00 0.2760000D+00 0.1101600D+02 0.1101600D+02
EXPONENTS  0.1101600D+02 0.1101600D+02 0.1101600D+02 0.1101600D+02 0.2980600D+02
EXPONENTS  0.2980600D+02 0.2980600D+02 0.2980600D+02 0.2980600D+02 0.2980600D+02
EXPONENTS  0.8064300D+02 0.8064300D+02 0.8064300D+02 0.8064300D+02 0.8064300D+02
EXPONENTS  0.8064300D+02 0.9710000D-01 0.9710000D-01 0.9710000D-01 0.9710000D-01
EXPONENTS  0.9710000D-01 0.9710000D-01 0.2942000D+01 0.2942000D+01 0.2942000D+01
EXPONENTS  0.2942000D+01 0.2942000D+01 0.2942000D+01 0.2942000D+01 0.2942000D+01
EXPONENTS  0.2942000D+01 0.2942000D+01 0.1204000D+01 0.1204000D+01 0.1204000D+01
EXPONENTS  0.1204000D+01 0.1204000D+01 0.1204000D+01 0.1204000D+01 0.1204000D+01
EXPONENTS  0.1204000D+01 0.1204000D+01 0.4930000D+00 0.4930000D+00 0.4930000D+00
EXPONENTS  0.4930000D+00 0.4930000D+00 0.4930000D+00 0.4930000D+00 0.4930000D+00
EXPONENTS  0.4930000D+00 0.4930000D+00 0.9486000D+01 0.9486000D+01 0.9486000D+01
EXPONENTS  0.9486000D+01 0.9486000D+01 0.9486000D+01 0.9486000D+01 0.9486000D+01
EXPONENTS  0.9486000D+01 0.9486000D+01 0.3075200D+02 0.3075200D+02 0.3075200D+02
EXPONENTS  0.3075200D+02 0.3075200D+02 0.3075200D+02 0.3075200D+02 0.3075200D+02
EXPONENTS  0.3075200D+02 0.3075200D+02 0.1920000D+00 0.1920000D+00 0.1920000D+00
EXPONENTS  0.1920000D+00 0.1920000D+00 0.1920000D+00 0.1920000D+00 0.1920000D+00
EXPONENTS  0.1920000D+00 0.1920000D+00 0.2511000D+01 0.2511000D+01 0.2511000D+01
EXPONENTS  0.2511000D+01 0.2511000D+01 0.2511000D+01 0.2511000D+01 0.2511000D+01
EXPONENTS  0.2511000D+01 0.2511000D+01 0.2511000D+01 0.2511000D+01 0.2511000D+01
EXPONENTS  0.2511000D+01 0.2511000D+01 0.9420000D+00 0.9420000D+00 0.9420000D+00
EXPONENTS  0.9420000D+00 0.9420000D+00 0.9420000D+00 0.9420000D+00 0.9420000D+00
EXPONENTS  0.9420000D+00 0.9420000D+00 0.9420000D+00 0.9420000D+00 0.9420000D+00
EXPONENTS  0.9420000D+00 0.9420000D+00 0.1083500D+02 0.1083500D+02 0.1083500D+02
EXPONENTS  0.1083500D+02 0.1083500D+02 0.1083500D+02 0.1083500D+02 0.1083500D+02
EXPONENTS  0.1083500D+02 0.1083500D+02 0.1083500D+02 0.1083500D+02 0.1083500D+02
EXPONENTS  0.1083500D+02 0.1083500D+02 0.4360000D+00 0.4360000D+00 0.4360000D+00
EXPONENTS  0.4360000D+00 0.4360000D+00 0.4360000D+00 0.4360000D+00 0.4360000D+00
EXPONENTS  0.4360000D+00 0.4360000D+00 0.4360000D+00 0.4360000D+00 0.4360000D+00
EXPONENTS  0.4360000D+00 0.4360000D+00 0.1768000D+01 0.1768000D+01 0.1768000D+01
EXPONENTS  0.1768000D+01 0.1768000D+01 0.1768000D+01 0.1768000D+01 0.1768000D+01
EXPONENTS  0.1768000D+01 0.1768000D+01 0.1768000D+01 0.1768000D+01 0.1768000D+01
EXPONENTS  0.1768000D+01 0.1768000D+01 0.1768000D+01 0.1768000D+01 0.1768000D+01
EXPONENTS  0.1768000D+01 0.1768000D+01 0.1768000D+01 0.7880000D+00 0.7880000D+00
EXPONENTS  0.7880000D+00 0.7880000D+00 0.7880000D+00 0.7880000D+00 0.7880000D+00
EXPONENTS  0.7880000D+00 0.7880000D+00 0.7880000D+00 0.7880000D+00 0.7880000D+00
EXPONENTS  0.7880000D+00 0.7880000D+00 0.7880000D+00 0.7880000D+00 0.7880000D+00
EXPONENTS  0.7880000D+00 0.7880000D+00 0.7880000D+00 0.7880000D+00
MO    1     MO 0.0        OCC NO =    1.9988176  ORB. ENERGY =    0.000000
  0.11386025D+00  0.23327819D+00  0.40036661D+00  0.64824393D+00  0.99457676D+00
  0.13911363D+01  0.17266194D+01  0.16759503D+01  0.10409237D+01  0.34674595D-02
  0.74188511D-02  0.37669568D-01  0.97347078D-01  0.27285446D+00  0.50856228D+00
  0.68169645D+00  0.84647409D-01 -0.70495834D-02 -0.23317027D-02 -0.55906834D-05
  0.50179850D-02  0.41743677D-04  0.36737588D-03 -0.10400114D-04 -0.33986666D-05
  0.00000000D+00  0.00000000D+00  0.00000000D+00  0.00000000D+00  0.00000000D+00
  0.00000000D+00  0.00000000D+00  0.00000000D+00  0.00000000D+00  0.00000000D+00
  0.00000000D+00  0.00000000D+00  0.00000000D+00  0.00000000D+00  0.00000000D+00
  0.00000000D+00  0.00000000D+00  0.00000000D+00  0.00000000D+00  0.00000000D+00
  0.00000000D+00  0.00000000D+00  0.00000000D+00  0.00000000D+00  0.00000000D+00
  0.00000000D+00  0.00000000D+00  0.00000000D+00  0.00000000D+00  0.00000000D+00
  0.00000000D+00  0.00000000D+00  0.00000000D+00  0.00000000D+00  0.00000000D+00
  0.00000000D+00  0.00000000D+00  0.00000000D+00  0.00000000D+00 -0.57587538D-14
  0.22999213D-14  0.34588325D-14 -0.23888726D-31 -0.16823569D-31  0.34260944D-14
  0.11056606D-15 -0.11398585D-14  0.10292924D-14  0.30939184D-31  0.12958371D-31
  0.11402664D-14  0.90767927D-16  0.24703141D-15 -0.33779934D-15 -0.69406572D-32
 -0.30871609D-32 -0.19122710D-15 -0.29727366D-16 -0.30087465D-16  0.59814831D-16
  0.14943875D-32  0.59559616D-33  0.51841526D-17  0.18286552D-13 -0.32133369D-14
 -0.15073216D-13  0.86506769D-30  0.27457635D-30  0.57082871D-14 -0.24733260D-13
  0.26412171D-13 -0.16789113D-14 -0.70151077D-29 -0.21255545D-29 -0.28838983D-13
 -0.22370164D-13 -0.10922233D-12  0.13159249D-12  0.29195845D-28  0.81933846D-29
 -0.22967775D-12  0.16913831D-17  0.11463115D-17 -0.28376946D-17 -0.10982625D-33
 -0.41492835D-34 -0.66682901D-18  0.00000000D+00  0.00000000D+00  0.00000000D+00
  0.00000000D+00  0.00000000D+00  0.00000000D+00  0.00000000D+00  0.00000000D+00
  0.00000000D+00  0.00000000D+00  0.00000000D+00  0.00000000D+00  0.00000000D+00
  0.00000000D+00  0.00000000D+00  0.00000000D+00  0.00000000D+00  0.00000000D+00
  0.00000000D+00  0.00000000D+00  0.00000000D+00  0.00000000D+00  0.00000000D+00
  0.00000000D+00  0.00000000D+00  0.00000000D+00  0.00000000D+00  0.00000000D+00
  0.00000000D+00  0.00000000D+00  0.00000000D+00  0.00000000D+00  0.00000000D+00
  0.00000000D+00  0.00000000D+00  0.00000000D+00  0.00000000D+00  0.00000000D+00
  0.00000000D+00  0.00000000D+00  0.00000000D+00  0.00000000D+00  0.00000000D+00
  0.00000000D+00  0.00000000D+00  0.00000000D+00  0.00000000D+00  0.00000000D+00
  0.00000000D+00  0.00000000D+00  0.00000000D+00  0.00000000D+00  0.00000000D+00
  0.00000000D+00  0.00000000D+00  0.00000000D+00  0.00000000D+00  0.00000000D+00
  0.00000000D+00  0.00000000D+00 -0.19899091D-14 -0.10680688D-13  0.60171803D-14
  0.12762742D-13 -0.24045393D-14 -0.67426760D-31  0.17078485D-31  0.58897734D-32
  0.38985844D-30  0.59222742D-14 -0.62461642D-14  0.84100555D-14  0.65463502D-31
 -0.39555127D-30 -0.23887216D-14  0.21453316D-15 -0.85872696D-16 -0.64005332D-15
  0.10321588D-15  0.32560482D-15  0.88461326D-32  0.21790521D-32  0.10345602D-32
 -0.37230418D-31 -0.64714561D-15 -0.52029543D-16 -0.13135756D-14 -0.91909860D-32
  0.36504067D-31  0.32678687D-15  0.38651250D-14  0.53309137D-12 -0.19944608D-13
 -0.63718111D-12  0.66565245D-14 -0.16817606D-29 -0.38710453D-29 -0.14203184D-29
  0.66481396D-29 -0.32461417D-14  0.31226922D-12 -0.19994538D-13  0.21552001D-29
 -0.53577912D-29  0.38734467D-14 -0.11864433D-16  0.68610502D-16  0.31954663D-16
 -0.82066099D-16 -0.28924980D-16 -0.12868984D-32 -0.69768413D-33 -0.30248851D-33
  0.44201259D-32  0.39231938D-16  0.40366791D-16  0.14159522D-15  0.13877280D-32
 -0.41875646D-32 -0.30137859D-16  0.00000000D+00  0.00000000D+00  0.00000000D+00
  0.00000000D+00  0.00000000D+00  0.00000000D+00  0.00000000D+00  0.00000000D+00
  0.00000000D+00  0.00000000D+00  0.00000000D+00  0.00000000D+00  0.00000000D+00
  0.00000000D+00  0.00000000D+00  0.00000000D+00  0.00000000D+00  0.00000000D+00
  0.00000000D+00  0.00000000D+00  0.00000000D+00  0.00000000D+00  0.00000000D+00
  0.00000000D+00  0.00000000D+00  0.00000000D+00  0.00000000D+00  0.00000000D+00
  0.00000000D+00  0.00000000D+00  0.00000000D+00  0.00000000D+00  0.00000000D+00
  0.00000000D+00  0.00000000D+00  0.00000000D+00  0.00000000D+00  0.00000000D+00
  0.00000000D+00  0.00000000D+00  0.00000000D+00  0.00000000D+00
MO    2     MO 0.0        OCC NO =    1.8668752  ORB. ENERGY =    0.000000
 -0.28401350D-01 -0.58189015D-01 -0.99867621D-01 -0.16169825D+00 -0.24808766D+00
 -0.34700565D+00 -0.43068869D+00 -0.41804978D+00 -0.25964845D+00 -0.21549776D-02
 -0.46107122D-02 -0.23411109D-01 -0.60499847D-01 -0.16957523D+00 -0.31606434D+00
 -0.42366481D+00  0.75590872D-02  0.42002631D+00  0.15394235D+00 -0.18446806D-02
 -0.10299740D-01  0.62783645D-02 -0.26580796D-02  0.16335006D-02  0.47577356D-03
  0.00000000D+00  0.00000000D+00  0.00000000D+00  0.00000000D+00  0.00000000D+00
  0.00000000D+00  0.00000000D+00  0.00000000D+00  0.00000000D+00  0.00000000D+00
  0.00000000D+00  0.00000000D+00  0.00000000D+00  0.00000000D+00  0.00000000D+00
  0.00000000D+00  0.00000000D+00  0.00000000D+00  0.00000000D+00  0.00000000D+00
  0.00000000D+00  0.00000000D+00  0.00000000D+00  0.00000000D+00  0.00000000D+00
  0.00000000D+00  0.00000000D+00  0.00000000D+00  0.00000000D+00  0.00000000D+00
  0.00000000D+00  0.00000000D+00  0.00000000D+00  0.00000000D+00  0.00000000D+00
  0.00000000D+00  0.00000000D+00  0.00000000D+00  0.00000000D+00 -0.18773423D-14
  0.62632956D-14 -0.43859533D-14 -0.52399753D-29 -0.16959965D-29 -0.17035976D-14
  0.71244453D-14  0.72458626D-14 -0.14370308D-13 -0.27416033D-31  0.11703702D-31
 -0.19164632D-15  0.15603561D-14  0.16031833D-14 -0.31635394D-14  0.92263090D-31
  0.26170808D-31  0.13240712D-15  0.50423090D-16  0.40627471D-16 -0.91050562D-16
 -0.12373678D-31 -0.38278769D-32 -0.72453682D-17  0.30760292D-14 -0.39341293D-14
  0.85810007D-15  0.65489305D-29  0.19643903D-29  0.16704136D-14 -0.75443327D-14
  0.38554783D-13 -0.31010450D-13 -0.26273108D-28 -0.72683308D-29  0.37769229D-13
 -0.22964555D-14 -0.35228285D-13  0.37524741D-13  0.28710833D-28  0.78252980D-29
  0.95924920D-13  0.10131378D-17  0.22472696D-17 -0.32604073D-17  0.77575506D-33
  0.27104467D-33 -0.88441844D-19  0.00000000D+00  0.00000000D+00  0.00000000D+00
  0.00000000D+00  0.00000000D+00  0.00000000D+00  0.00000000D+00  0.00000000D+00
  0.00000000D+00  0.00000000D+00  0.00000000D+00  0.00000000D+00  0.00000000D+00
  0.00000000D+00  0.00000000D+00  0.00000000D+00  0.00000000D+00  0.00000000D+00
  0.00000000D+00  0.00000000D+00  0.00000000D+00  0.00000000D+00  0.00000000D+00
  0.00000000D+00  0.00000000D+00  0.00000000D+00  0.00000000D+00  0.00000000D+00
  0.00000000D+00  0.00000000D+00  0.00000000D+00  0.00000000D+00  0.00000000D+00
  0.00000000D+00  0.00000000D+00  0.00000000D+00  0.00000000D+00  0.00000000D+00
  0.00000000D+00  0.00000000D+00  0.00000000D+00  0.00000000D+00  0.00000000D+00
  0.00000000D+00  0.00000000D+00  0.00000000D+00  0.00000000D+00  0.00000000D+00
  0.00000000D+00  0.00000000D+00  0.00000000D+00  0.00000000D+00  0.00000000D+00
  0.00000000D+00  0.00000000D+00  0.00000000D+00  0.00000000D+00  0.00000000D+00
  0.00000000D+00  0.00000000D+00  0.37642184D-15  0.22784683D-14 -0.34020332D-15
 -0.69715323D-14  0.18071685D-14  0.41853895D-31  0.99631106D-31  0.36593724D-31
 -0.16059288D-30 -0.19183277D-14  0.14079192D-13 -0.10502807D-13 -0.54051803D-31
  0.12738252D-30  0.20701892D-14 -0.60418446D-15  0.17551994D-16  0.18332065D-14
 -0.57035045D-16 -0.77906693D-15 -0.35168702D-31 -0.22986534D-32 -0.99739755D-33
  0.19630612D-30  0.17919002D-14  0.11844915D-15  0.28411950D-14  0.35501168D-31
 -0.19553991D-30 -0.77218253D-15 -0.84202664D-14 -0.11350515D-12  0.64532516D-13
  0.34823958D-12 -0.50408318D-13 -0.34034206D-29 -0.14330688D-28 -0.50446302D-29
  0.19772768D-28 -0.14010917D-13 -0.70420331D-12  0.23791739D-12  0.50849640D-29
 -0.14995872D-28 -0.37317746D-13  0.71558383D-15 -0.14533576D-16 -0.21386072D-14
  0.44915586D-16  0.73226932D-15  0.54659343D-31  0.44214687D-33  0.18151564D-33
 -0.31983375D-30 -0.21548958D-14 -0.91146031D-16 -0.22550088D-14 -0.54719849D-31
  0.31968637D-30  0.73498409D-15  0.00000000D+00  0.00000000D+00  0.00000000D+00
  0.00000000D+00  0.00000000D+00  0.00000000D+00  0.00000000D+00  0.00000000D+00
  0.00000000D+00  0.00000000D+00  0.00000000D+00  0.00000000D+00  0.00000000D+00
  0.00000000D+00  0.00000000D+00  0.00000000D+00  0.00000000D+00  0.00000000D+00
  0.00000000D+00  0.00000000D+00  0.00000000D+00  0.00000000D+00  0.00000000D+00
  0.00000000D+00  0.00000000D+00  0.00000000D+00  0.00000000D+00  0.00000000D+00
  0.00000000D+00  0.00000000D+00  0.00000000D+00  0.00000000D+00  0.00000000D+00
  0.00000000D+00  0.00000000D+00  0.00000000D+00  0.00000000D+00  0.00000000D+00
  0.00000000D+00  0.00000000D+00  0.00000000D+00  0.00000000D+00
MO    3     MO 0.0        OCC NO =    0.0440670  ORB. ENERGY =    0.000000
  0.00000000D+00  0.00000000D+00  0.00000000D+00  0.00000000D+00  0.00000000D+00
  0.00000000D+00  0.00000000D+00  0.00000000D+00  0.00000000D+00  0.00000000D+00
  0.00000000D+00  0.00000000D+00  0.00000000D+00  0.00000000D+00  0.00000000D+00
  0.00000000D+00  0.00000000D+00  0.00000000D+00  0.00000000D+00  0.00000000D+00
  0.00000000D+00  0.00000000D+00  0.00000000D+00  0.00000000D+00  0.00000000D+00
  0.00000000D+00  0.00000000D+00  0.00000000D+00  0.00000000D+00  0.71035394D+00
  0.92996993D+00  0.10227978D+01  0.95087326D+00  0.00000000D+00  0.00000000D+00
  0.00000000D+00  0.00000000D+00  0.00000000D+00  0.10687934D+01  0.00000000D+00
  0.00000000D+00  0.41364555D+00  0.00000000D+00  0.00000000D+00  0.18448808D-01
  0.00000000D+00  0.00000000D+00 -0.24208137D-04  0.00000000D+00  0.00000000D+00
  0.10983489D+00  0.00000000D+00  0.00000000D+00  0.11352113D+00  0.00000000D+00
  0.00000000D+00  0.15515139D+00  0.00000000D+00  0.00000000D+00  0.75357660D-01
  0.00000000D+00  0.00000000D+00 -0.63261024D-05  0.00000000D+00  0.00000000D+00
  0.00000000D+00  0.00000000D+00  0.00000000D+00  0.00000000D+00  0.00000000D+00
  0.00000000D+00  0.00000000D+00  0.00000000D+00  0.00000000D+00  0.00000000D+00
  0.00000000D+00  0.00000000D+00  0.00000000D+00  0.00000000D+00  0.00000000D+00
  0.00000000D+00  0.00000000D+00  0.00000000D+00  0.00000000D+00  0.00000000D+00
  0.00000000D+00  0.00000000D+00  0.00000000D+00  0.00000000D+00  0.00000000D+00
  0.00000000D+00  0.00000000D+00  0.00000000D+00  0.00000000D+00  0.00000000D+00
  0.00000000D+00  0.00000000D+00  0.00000000D+00  0.00000000D+00  0.00000000D+00
  0.00000000D+00  0.00000000D+00  0.00000000D+00  0.00000000D+00  0.00000000D+00
  0.00000000D+00  0.00000000D+00  0.00000000D+00  0.00000000D+00  0.00000000D+00
  0.00000000D+00  0.00000000D+00  0.00000000D+00 -0.31445091D-13  0.00000000D+00
  0.00000000D+00 -0.27448250D-13  0.00000000D+00  0.00000000D+00  0.12178352D-12
  0.00000000D+00  0.00000000D+00  0.00000000D+00 -0.73756548D-14  0.00000000D+00
  0.00000000D+00 -0.56156168D-14  0.00000000D+00  0.00000000D+00  0.27742581D-13
  0.00000000D+00  0.00000000D+00  0.00000000D+00 -0.60612065D-16  0.00000000D+00
  0.00000000D+00 -0.54698503D-15  0.00000000D+00  0.00000000D+00  0.72882122D-15
  0.00000000D+00  0.00000000D+00  0.00000000D+00 -0.80957741D-13  0.00000000D+00
  0.00000000D+00 -0.11472205D-12  0.00000000D+00  0.00000000D+00  0.35759527D-12
  0.00000000D+00  0.00000000D+00  0.00000000D+00 -0.69840458D-12  0.00000000D+00
  0.00000000D+00  0.45374339D-12  0.00000000D+00  0.00000000D+00  0.16414703D-11
  0.00000000D+00  0.00000000D+00  0.00000000D+00  0.52488100D-17  0.00000000D+00
  0.00000000D+00 -0.20141498D-17  0.00000000D+00  0.00000000D+00 -0.13732280D-16
  0.00000000D+00  0.00000000D+00  0.00000000D+00  0.00000000D+00  0.00000000D+00
  0.00000000D+00  0.00000000D+00  0.00000000D+00  0.00000000D+00  0.00000000D+00
  0.00000000D+00  0.00000000D+00  0.00000000D+00  0.00000000D+00  0.00000000D+00
  0.00000000D+00  0.00000000D+00  0.00000000D+00  0.00000000D+00  0.00000000D+00
  0.00000000D+00  0.00000000D+00  0.00000000D+00  0.00000000D+00  0.00000000D+00
  0.00000000D+00  0.00000000D+00  0.00000000D+00  0.00000000D+00  0.00000000D+00
  0.00000000D+00  0.00000000D+00  0.00000000D+00  0.00000000D+00  0.00000000D+00
  0.00000000D+00  0.00000000D+00  0.00000000D+00  0.00000000D+00  0.00000000D+00
  0.00000000D+00  0.00000000D+00  0.00000000D+00  0.00000000D+00  0.00000000D+00
  0.00000000D+00  0.00000000D+00  0.00000000D+00  0.00000000D+00  0.00000000D+00
  0.00000000D+00  0.00000000D+00  0.00000000D+00  0.00000000D+00  0.00000000D+00
  0.00000000D+00  0.00000000D+00  0.00000000D+00  0.00000000D+00  0.00000000D+00
  0.00000000D+00  0.00000000D+00  0.00000000D+00  0.19450576D-14  0.00000000D+00
 -0.56586871D-14  0.00000000D+00  0.29890423D-15  0.00000000D+00  0.00000000D+00
  0.00000000D+00  0.00000000D+00  0.00000000D+00  0.00000000D+00  0.53057157D-14
  0.00000000D+00  0.26696449D-14  0.00000000D+00  0.00000000D+00  0.00000000D+00
  0.00000000D+00 -0.22191084D-14  0.00000000D+00  0.00000000D+00  0.21248029D-15
  0.00000000D+00 -0.29029128D-15  0.00000000D+00  0.84624956D-16  0.00000000D+00
  0.00000000D+00  0.00000000D+00  0.00000000D+00  0.00000000D+00  0.00000000D+00
 -0.40400794D-15  0.00000000D+00 -0.55595828D-15  0.00000000D+00  0.00000000D+00
  0.00000000D+00  0.00000000D+00  0.34531380D-15  0.00000000D+00
MO    4     MO 0.0        OCC NO =    0.0440670  ORB. ENERGY =    0.000000
  0.00000000D+00  0.00000000D+00  0.00000000D+00  0.00000000D+00  0.00000000D+00
  0.00000000D+00  0.00000000D+00  0.00000000D+00  0.00000000D+00  0.00000000D+00
  0.00000000D+00  0.00000000D+00  0.00000000D+00  0.00000000D+00  0.00000000D+00
  0.00000000D+00  0.00000000D+00  0.00000000D+00  0.00000000D+00  0.00000000D+00
  0.00000000D+00  0.00000000D+00  0.00000000D+00  0.00000000D+00  0.00000000D+00
  0.71035394D+00  0.92996993D+00  0.10227978D+01  0.95087326D+00  0.00000000D+00
  0.00000000D+00  0.00000000D+00  0.00000000D+00  0.00000000D+00  0.00000000D+00
  0.00000000D+00  0.00000000D+00  0.10687934D+01  0.00000000D+00  0.00000000D+00
  0.41364555D+00  0.00000000D+00  0.00000000D+00  0.18448808D-01  0.00000000D+00
  0.00000000D+00 -0.24208137D-04  0.00000000D+00  0.00000000D+00  0.10983489D+00
  0.00000000D+00  0.00000000D+00  0.11352113D+00  0.00000000D+00  0.00000000D+00
  0.15515139D+00  0.00000000D+00  0.00000000D+00  0.75357660D-01  0.00000000D+00
  0.00000000D+00 -0.63261024D-05  0.00000000D+00  0.00000000D+00  0.00000000D+00
  0.00000000D+00  0.00000000D+00  0.00000000D+00  0.00000000D+00  0.00000000D+00
  0.00000000D+00  0.00000000D+00  0.00000000D+00  0.00000000D+00  0.00000000D+00
  0.00000000D+00  0.00000000D+00  0.00000000D+00  0.00000000D+00  0.00000000D+00
  0.00000000D+00  0.00000000D+00  0.00000000D+00  0.00000000D+00  0.00000000D+00
  0.00000000D+00  0.00000000D+00  0.00000000D+00  0.00000000D+00  0.00000000D+00
  0.00000000D+00  0.00000000D+00  0.00000000D+00  0.00000000D+00  0.00000000D+00
  0.00000000D+00  0.00000000D+00  0.00000000D+00  0.00000000D+00  0.00000000D+00
  0.00000000D+00  0.00000000D+00  0.00000000D+00  0.00000000D+00  0.00000000D+00
  0.00000000D+00  0.00000000D+00  0.00000000D+00  0.00000000D+00  0.00000000D+00
  0.00000000D+00  0.00000000D+00 -0.32490524D-13  0.00000000D+00  0.00000000D+00
 -0.24885746D-13  0.00000000D+00  0.00000000D+00  0.12235732D-12  0.00000000D+00
  0.00000000D+00  0.00000000D+00 -0.62029191D-14  0.00000000D+00  0.00000000D+00
 -0.87190901D-14  0.00000000D+00  0.00000000D+00  0.27327847D-13  0.00000000D+00
  0.00000000D+00  0.00000000D+00 -0.16788466D-15  0.00000000D+00  0.00000000D+00
 -0.38527570D-15  0.00000000D+00  0.00000000D+00  0.88892968D-15  0.00000000D+00
  0.00000000D+00  0.00000000D+00 -0.11320732D-13  0.00000000D+00  0.00000000D+00
 -0.85248372D-13  0.00000000D+00  0.00000000D+00  0.11921057D-12  0.00000000D+00
  0.00000000D+00  0.00000000D+00  0.10312616D-12  0.00000000D+00  0.00000000D+00
 -0.41318536D-12  0.00000000D+00  0.00000000D+00  0.10380687D-12  0.00000000D+00
  0.00000000D+00  0.00000000D+00  0.67948292D-17  0.00000000D+00  0.00000000D+00
 -0.15677643D-17  0.00000000D+00  0.00000000D+00 -0.18816723D-16  0.00000000D+00
  0.00000000D+00  0.00000000D+00  0.00000000D+00  0.00000000D+00  0.00000000D+00
  0.00000000D+00  0.00000000D+00  0.00000000D+00  0.00000000D+00  0.00000000D+00
  0.00000000D+00  0.00000000D+00  0.00000000D+00  0.00000000D+00  0.00000000D+00
  0.00000000D+00  0.00000000D+00  0.00000000D+00  0.00000000D+00  0.00000000D+00
  0.00000000D+00  0.00000000D+00  0.00000000D+00  0.00000000D+00  0.00000000D+00
  0.00000000D+00  0.00000000D+00  0.00000000D+00  0.00000000D+00  0.00000000D+00
  0.00000000D+00  0.00000000D+00  0.00000000D+00  0.00000000D+00  0.00000000D+00
  0.00000000D+00  0.00000000D+00  0.00000000D+00  0.00000000D+00  0.00000000D+00
  0.00000000D+00  0.00000000D+00  0.00000000D+00  0.00000000D+00  0.00000000D+00
  0.00000000D+00  0.00000000D+00  0.00000000D+00  0.00000000D+00  0.00000000D+00
  0.00000000D+00  0.00000000D+00  0.00000000D+00  0.00000000D+00  0.00000000D+00
  0.00000000D+00  0.00000000D+00  0.00000000D+00  0.00000000D+00  0.00000000D+00
  0.00000000D+00  0.00000000D+00  0.00000000D+00  0.00000000D+00  0.00000000D+00
  0.00000000D+00  0.00000000D+00  0.00000000D+00 -0.67072504D-15  0.00000000D+00
  0.42149718D-14  0.00000000D+00 -0.77497004D-15  0.00000000D+00  0.00000000D+00
  0.00000000D+00  0.00000000D+00 -0.63540521D-16  0.00000000D+00  0.14494948D-15
  0.00000000D+00  0.00000000D+00 -0.81408955D-17  0.00000000D+00  0.00000000D+00
  0.00000000D+00  0.00000000D+00  0.00000000D+00  0.00000000D+00  0.24733612D-15
  0.00000000D+00 -0.37048839D-15  0.00000000D+00  0.25709748D-15  0.00000000D+00
  0.00000000D+00  0.00000000D+00  0.00000000D+00 -0.37117610D-15  0.00000000D+00
 -0.39069883D-15  0.00000000D+00  0.00000000D+00  0.76187493D-16
MO    5     MO 0.0        OCC NO =    0.0440670  ORB. ENERGY =    0.000000
  0.00000000D+00  0.00000000D+00  0.00000000D+00  0.00000000D+00  0.00000000D+00
  0.00000000D+00  0.00000000D+00  0.00000000D+00  0.00000000D+00  0.00000000D+00
  0.00000000D+00  0.00000000D+00  0.00000000D+00  0.00000000D+00  0.00000000D+00
  0.00000000D+00  0.00000000D+00  0.00000000D+00  0.00000000D+00  0.00000000D+00
  0.00000000D+00  0.00000000D+00  0.00000000D+00  0.00000000D+00  0.00000000D+00
  0.00000000D+00  0.00000000D+00  0.00000000D+00  0.00000000D+00  0.00000000D+00
  0.00000000D+00  0.00000000D+00  0.00000000D+00  0.71035394D+00  0.92996993D+00
  0.10227978D+01  0.95087326D+00  0.00000000D+00  0.00000000D+00  0.10687934D+01
  0.00000000D+00  0.00000000D+00  0.41364555D+00  0.00000000D+00  0.00000000D+00
  0.18448808D-01  0.00000000D+00  0.00000000D+00 -0.24208137D-04  0.00000000D+00
  0.00000000D+00  0.10983489D+00  0.00000000D+00  0.00000000D+00  0.11352113D+00
  0.00000000D+00  0.00000000D+00  0.15515139D+00  0.00000000D+00  0.00000000D+00
  0.75357660D-01  0.00000000D+00  0.00000000D+00 -0.63261024D-05  0.00000000D+00
  0.00000000D+00  0.00000000D+00  0.00000000D+00  0.00000000D+00  0.00000000D+00
  0.00000000D+00  0.00000000D+00  0.00000000D+00  0.00000000D+00  0.00000000D+00
  0.00000000D+00  0.00000000D+00  0.00000000D+00  0.00000000D+00  0.00000000D+00
  0.00000000D+00  0.00000000D+00  0.00000000D+00  0.00000000D+00  0.00000000D+00
  0.00000000D+00  0.00000000D+00  0.00000000D+00  0.00000000D+00  0.00000000D+00
  0.00000000D+00  0.00000000D+00  0.00000000D+00  0.00000000D+00  0.00000000D+00
  0.00000000D+00  0.00000000D+00  0.00000000D+00  0.00000000D+00  0.00000000D+00
  0.00000000D+00  0.00000000D+00  0.00000000D+00  0.00000000D+00  0.00000000D+00
  0.00000000D+00  0.00000000D+00  0.00000000D+00  0.00000000D+00  0.00000000D+00
  0.00000000D+00  0.00000000D+00  0.00000000D+00  0.00000000D+00  0.63914929D-13
  0.00000000D+00  0.00000000D+00 -0.97184142D-13  0.00000000D+00  0.00000000D+00
 -0.94560644D-13  0.00000000D+00  0.00000000D+00  0.00000000D+00  0.12660326D-13
  0.00000000D+00  0.00000000D+00 -0.17585664D-13  0.00000000D+00  0.00000000D+00
 -0.20395314D-13  0.00000000D+00  0.00000000D+00  0.00000000D+00  0.77995332D-15
  0.00000000D+00  0.00000000D+00 -0.13991887D-14  0.00000000D+00  0.00000000D+00
 -0.94067128D-15  0.00000000D+00  0.00000000D+00  0.00000000D+00  0.10192189D-12
  0.00000000D+00  0.00000000D+00 -0.10818621D-12  0.00000000D+00  0.00000000D+00
 -0.19757946D-12  0.00000000D+00  0.00000000D+00  0.00000000D+00 -0.17467284D-13
  0.00000000D+00  0.00000000D+00 -0.35335275D-12  0.00000000D+00  0.00000000D+00
  0.40575460D-12  0.00000000D+00  0.00000000D+00  0.00000000D+00 -0.14385111D-17
  0.00000000D+00  0.00000000D+00  0.17974168D-16  0.00000000D+00  0.00000000D+00
 -0.13658634D-16  0.00000000D+00  0.00000000D+00  0.00000000D+00  0.00000000D+00
  0.00000000D+00  0.00000000D+00  0.00000000D+00  0.00000000D+00  0.00000000D+00
  0.00000000D+00  0.00000000D+00  0.00000000D+00  0.00000000D+00  0.00000000D+00
  0.00000000D+00  0.00000000D+00  0.00000000D+00  0.00000000D+00  0.00000000D+00
  0.00000000D+00  0.00000000D+00  0.00000000D+00  0.00000000D+00  0.00000000D+00
  0.00000000D+00  0.00000000D+00  0.00000000D+00  0.00000000D+00  0.00000000D+00
  0.00000000D+00  0.00000000D+00  0.00000000D+00  0.00000000D+00  0.00000000D+00
  0.00000000D+00  0.00000000D+00  0.00000000D+00  0.00000000D+00  0.00000000D+00
  0.00000000D+00  0.00000000D+00  0.00000000D+00  0.00000000D+00  0.00000000D+00
  0.00000000D+00  0.00000000D+00  0.00000000D+00  0.00000000D+00  0.00000000D+00
  0.00000000D+00  0.00000000D+00  0.00000000D+00  0.00000000D+00  0.00000000D+00
  0.00000000D+00  0.00000000D+00  0.00000000D+00  0.00000000D+00  0.00000000D+00
  0.00000000D+00  0.00000000D+00 -0.31740152D-15  0.00000000D+00  0.27737406D-14
  0.00000000D+00 -0.11227400D-14  0.00000000D+00  0.00000000D+00  0.00000000D+00
  0.00000000D+00  0.00000000D+00  0.00000000D+00  0.40027464D-15  0.00000000D+00
 -0.15847818D-14  0.00000000D+00  0.00000000D+00  0.00000000D+00  0.00000000D+00
  0.63992986D-16  0.00000000D+00  0.00000000D+00  0.10727636D-15  0.00000000D+00
 -0.52745465D-15  0.00000000D+00  0.28585001D-15  0.00000000D+00  0.00000000D+00
  0.00000000D+00  0.00000000D+00  0.00000000D+00  0.00000000D+00 -0.54530898D-15
  0.00000000D+00 -0.13273610D-15  0.00000000D+00  0.00000000D+00  0.00000000D+00
  0.00000000D+00  0.29477718D-15  0.00000000D+00  0.00000000D+00
MO    6     MO 0.0        OCC NO =    0.0006608  ORB. ENERGY =    0.000000
  0.11916457D+00  0.24414575D+00  0.41901818D+00  0.67844317D+00  0.10409104D+01
  0.14559441D+01  0.18070561D+01  0.17540265D+01  0.10894164D+01  0.84677531D-03
  0.18117298D-02  0.91991441D-02  0.23772765D-01  0.66632767D-01  0.12419409D+00
  0.16647454D+00 -0.12997977D+01 -0.24949017D+00  0.35310594D+00 -0.89364516D-02
 -0.13378544D+01  0.12088612D+01  0.12625500D+01  0.73790753D+00  0.19195628D-02
  0.00000000D+00  0.00000000D+00  0.00000000D+00  0.00000000D+00  0.00000000D+00