 Title Card Required
GAUSSIAN             75 MOL ORBITALS    274 PRIMITIVES        1 NUCLEI
  N    1    (CENTRE  1)   0.00000000  0.00000000  0.00000000  CHARGE =  7.0
CENTRE ASSIGNMENTS    1  1  1  1  1  1  1  1  1  1  1  1  1  1  1  1  1  1  1  1
CENTRE ASSIGNMENTS    1  1  1  1  1  1  1  1  1  1  1  1  1  1  1  1  1  1  1  1
CENTRE ASSIGNMENTS    1  1  1  1  1  1  1  1  1  1  1  1  1  1  1  1  1  1  1  1
CENTRE ASSIGNMENTS    1  1  1  1  1  1  1  1  1  1  1  1  1  1  1  1  1  1  1  1
CENTRE ASSIGNMENTS    1  1  1  1  1  1  1  1  1  1  1  1  1  1  1  1  1  1  1  1
CENTRE ASSIGNMENTS    1  1  1  1  1  1  1  1  1  1  1  1  1  1  1  1  1  1  1  1
CENTRE ASSIGNMENTS    1  1  1  1  1  1  1  1  1  1  1  1  1  1  1  1  1  1  1  1
CENTRE ASSIGNMENTS    1  1  1  1  1  1  1  1  1  1  1  1  1  1  1  1  1  1  1  1
CENTRE ASSIGNMENTS    1  1  1  1  1  1  1  1  1  1  1  1  1  1  1  1  1  1  1  1
CENTRE ASSIGNMENTS    1  1  1  1  1  1  1  1  1  1  1  1  1  1  1  1  1  1  1  1
CENTRE ASSIGNMENTS    1  1  1  1  1  1  1  1  1  1  1  1  1  1  1  1  1  1  1  1
CENTRE ASSIGNMENTS    1  1  1  1  1  1  1  1  1  1  1  1  1  1  1  1  1  1  1  1
CENTRE ASSIGNMENTS    1  1  1  1  1  1  1  1  1  1  1  1  1  1  1  1  1  1  1  1
CENTRE ASSIGNMENTS    1  1  1  1  1  1  1  1  1  1  1  1  1  1
TYPE ASSIGNMENTS      1  1  1  1  1  1  1  1  1  1  1  1  1  1  1  1  1  1  1  1
TYPE ASSIGNMENTS      1  1  1  1  1  2  2  2  2  3  3  3  3  4  4  4  4  2  3  4
TYPE ASSIGNMENTS      2  3  4  2  3  4  2  3  4  2  3  4  2  3  4  2  3  4  2  3
TYPE ASSIGNMENTS      4  2  3  4  5  6  7  8  9 10  5  6  7  8  9 10  5  6  7  8
TYPE ASSIGNMENTS      9 10  5  6  7  8  9 10  5  6  7  8  9 10  5  6  7  8  9 10
TYPE ASSIGNMENTS      5  6  7  8  9 10  5  6  7  8  9 10 11 12 13 17 14 15 18 19
TYPE ASSIGNMENTS     16 20 11 12 13 17 14 15 18 19 16 20 11 12 13 17 14 15 18 19
TYPE ASSIGNMENTS     16 20 11 12 13 17 14 15 18 19 16 20 11 12 13 17 14 15 18 19
TYPE ASSIGNMENTS     16 20 11 12 13 17 14 15 18 19 16 20 23 29 32 27 22 28 35 34
TYPE ASSIGNMENTS     26 31 33 30 25 24 21 23 29 32 27 22 28 35 34 26 31 33 30 25
TYPE ASSIGNMENTS     24 21 23 29 32 27 22 28 35 34 26 31 33 30 25 24 21 23 29 32
TYPE ASSIGNMENTS     27 22 28 35 34 26 31 33 30 25 24 21 36 37 38 39 40 41 42 43
TYPE ASSIGNMENTS     44 45 46 47 48 49 50 51 52 53 54 55 56 36 37 38 39 40 41 42
TYPE ASSIGNMENTS     43 44 45 46 47 48 49 50 51 52 53 54 55 56
EXPONENTS  0.1292000D+06 0.1935000D+05 0.4404000D+04 0.1248000D+04 0.4080000D+03
EXPONENTS  0.1482000D+03 0.5850000D+02 0.2459000D+02 0.1081000D+02 0.1248000D+04
EXPONENTS  0.4080000D+03 0.1482000D+03 0.5850000D+02 0.2459000D+02 0.1081000D+02
EXPONENTS  0.4882000D+01 0.2195000D+01 0.8715000D+00 0.3504000D+00 0.1397000D+00
EXPONENTS  0.1042200D+02 0.2259600D+02 0.4899300D+02 0.1062260D+03 0.5180000D-01
EXPONENTS  0.1470000D+03 0.3476000D+02 0.1100000D+02 0.3995000D+01 0.1470000D+03
EXPONENTS  0.3476000D+02 0.1100000D+02 0.3995000D+01 0.1470000D+03 0.3476000D+02
EXPONENTS  0.1100000D+02 0.3995000D+01 0.1587000D+01 0.1587000D+01 0.1587000D+01
EXPONENTS  0.6533000D+00 0.6533000D+00 0.6533000D+00 0.2686000D+00 0.2686000D+00
EXPONENTS  0.2686000D+00 0.1067000D+00 0.1067000D+00 0.1067000D+00 0.8766000D+01
EXPONENTS  0.8766000D+01 0.8766000D+01 0.2167600D+02 0.2167600D+02 0.2167600D+02
EXPONENTS  0.5360000D+02 0.5360000D+02 0.5360000D+02 0.1325440D+03 0.1325440D+03
EXPONENTS  0.1325440D+03 0.3690000D-01 0.3690000D-01 0.3690000D-01 0.4647000D+01
EXPONENTS  0.4647000D+01 0.4647000D+01 0.4647000D+01 0.4647000D+01 0.4647000D+01
EXPONENTS  0.1813000D+01 0.1813000D+01 0.1813000D+01 0.1813000D+01 0.1813000D+01
EXPONENTS  0.1813000D+01 0.7070000D+00 0.7070000D+00 0.7070000D+00 0.7070000D+00
EXPONENTS  0.7070000D+00 0.7070000D+00 0.2760000D+00 0.2760000D+00 0.2760000D+00
EXPONENTS  0.2760000D+00 0.2760000D+00 0.2760000D+00 0.1101600D+02 0.1101600D+02
EXPONENTS  0.1101600D+02 0.1101600D+02 0.1101600D+02 0.1101600D+02 0.2980600D+02
EXPONENTS  0.2980600D+02 0.2980600D+02 0.2980600D+02 0.2980600D+02 0.2980600D+02
EXPONENTS  0.8064300D+02 0.8064300D+02 0.8064300D+02 0.8064300D+02 0.8064300D+02
EXPONENTS  0.8064300D+02 0.9710000D-01 0.9710000D-01 0.9710000D-01 0.9710000D-01
EXPONENTS  0.9710000D-01 0.9710000D-01 0.2942000D+01 0.2942000D+01 0.2942000D+01
EXPONENTS  0.2942000D+01 0.2942000D+01 0.2942000D+01 0.2942000D+01 0.2942000D+01
EXPONENTS  0.2942000D+01 0.2942000D+01 0.1204000D+01 0.1204000D+01 0.1204000D+01
EXPONENTS  0.1204000D+01 0.1204000D+01 0.1204000D+01 0.1204000D+01 0.1204000D+01
EXPONENTS  0.1204000D+01 0.1204000D+01 0.4930000D+00 0.4930000D+00 0.4930000D+00
EXPONENTS  0.4930000D+00 0.4930000D+00 0.4930000D+00 0.4930000D+00 0.4930000D+00
EXPONENTS  0.4930000D+00 0.4930000D+00 0.9486000D+01 0.9486000D+01 0.9486000D+01
EXPONENTS  0.9486000D+01 0.9486000D+01 0.9486000D+01 0.9486000D+01 0.9486000D+01
EXPONENTS  0.9486000D+01 0.9486000D+01 0.3075200D+02 0.3075200D+02 0.3075200D+02
EXPONENTS  0.3075200D+02 0.3075200D+02 0.3075200D+02 0.3075200D+02 0.3075200D+02
EXPONENTS  0.3075200D+02 0.3075200D+02 0.1920000D+00 0.1920000D+00 0.1920000D+00
EXPONENTS  0.1920000D+00 0.1920000D+00 0.1920000D+00 0.1920000D+00 0.1920000D+00
EXPONENTS  0.1920000D+00 0.1920000D+00 0.2511000D+01 0.2511000D+01 0.2511000D+01
EXPONENTS  0.2511000D+01 0.2511000D+01 0.2511000D+01 0.2511000D+01 0.2511000D+01
EXPONENTS  0.2511000D+01 0.2511000D+01 0.2511000D+01 0.2511000D+01 0.2511000D+01
EXPONENTS  0.2511000D+01 0.2511000D+01 0.9420000D+00 0.9420000D+00 0.9420000D+00
EXPONENTS  0.9420000D+00 0.9420000D+00 0.9420000D+00 0.9420000D+00 0.9420000D+00
EXPONENTS  0.9420000D+00 0.9420000D+00 0.9420000D+00 0.9420000D+00 0.9420000D+00
EXPONENTS  0.9420000D+00 0.9420000D+00 0.1083500D+02 0.1083500D+02 0.1083500D+02
EXPONENTS  0.1083500D+02 0.1083500D+02 0.1083500D+02 0.1083500D+02 0.1083500D+02
EXPONENTS  0.1083500D+02 0.1083500D+02 0.1083500D+02 0.1083500D+02 0.1083500D+02
EXPONENTS  0.1083500D+02 0.1083500D+02 0.4360000D+00 0.4360000D+00 0.4360000D+00
EXPONENTS  0.4360000D+00 0.4360000D+00 0.4360000D+00 0.4360000D+00 0.4360000D+00
EXPONENTS  0.4360000D+00 0.4360000D+00 0.4360000D+00 0.4360000D+00 0.4360000D+00
EXPONENTS  0.4360000D+00 0.4360000D+00 0.1768000D+01 0.1768000D+01 0.1768000D+01
EXPONENTS  0.1768000D+01 0.1768000D+01 0.1768000D+01 0.1768000D+01 0.1768000D+01
EXPONENTS  0.1768000D+01 0.1768000D+01 0.1768000D+01 0.1768000D+01 0.1768000D+01
EXPONENTS  0.1768000D+01 0.1768000D+01 0.1768000D+01 0.1768000D+01 0.1768000D+01
EXPONENTS  0.1768000D+01 0.1768000D+01 0.1768000D+01 0.7880000D+00 0.7880000D+00
EXPONENTS  0.7880000D+00 0.7880000D+00 0.7880000D+00 0.7880000D+00 0.7880000D+00
EXPONENTS  0.7880000D+00 0.7880000D+00 0.7880000D+00 0.7880000D+00 0.7880000D+00
EXPONENTS  0.7880000D+00 0.7880000D+00 0.7880000D+00 0.7880000D+00 0.7880000D+00
EXPONENTS  0.7880000D+00 0.7880000D+00 0.7880000D+00 0.7880000D+00
MO    1     MO 0.0        OCC NO =    1.9988815  ORB. ENERGY =    0.000000
  0.11364928D+00  0.23284597D+00  0.39962480D+00  0.64704284D+00  0.99273398D+00
  0.13885588D+01  0.17234202D+01  0.16728451D+01  0.10389950D+01  0.34439607D-02
  0.73685739D-02  0.37414283D-01  0.96687361D-01  0.27100534D+00  0.50511577D+00
  0.67707663D+00  0.80732724D-01 -0.75246674D-03  0.22122410D-03 -0.44216803D-04
  0.26599448D-02  0.15137634D-02  0.22968277D-02  0.83255554D-03  0.53832195D-05
  0.00000000D+00  0.00000000D+00  0.00000000D+00  0.00000000D+00  0.00000000D+00
  0.00000000D+00  0.00000000D+00  0.00000000D+00  0.00000000D+00  0.00000000D+00
  0.00000000D+00  0.00000000D+00  0.00000000D+00  0.00000000D+00  0.00000000D+00
  0.00000000D+00  0.00000000D+00  0.00000000D+00  0.00000000D+00  0.00000000D+00
  0.00000000D+00  0.00000000D+00  0.00000000D+00  0.00000000D+00  0.00000000D+00
  0.00000000D+00  0.00000000D+00  0.00000000D+00  0.00000000D+00  0.00000000D+00
  0.00000000D+00  0.00000000D+00  0.00000000D+00  0.00000000D+00  0.00000000D+00
  0.00000000D+00  0.00000000D+00  0.00000000D+00  0.00000000D+00  0.17103174D-14
 -0.20906307D-13  0.19195990D-13 -0.55644652D-30 -0.16719720D-30 -0.31208243D-14
 -0.32464260D-15  0.28810946D-14 -0.25564520D-14  0.95520964D-31  0.28828846D-31
  0.90460787D-15  0.36051818D-16 -0.19538971D-15  0.15933789D-15 -0.11835017D-31
 -0.38516086D-32  0.80121950D-16 -0.72626071D-17 -0.11984148D-16  0.19246755D-16
  0.13158102D-32  0.47289873D-33 -0.95695324D-16  0.15640603D-13  0.44498111D-13
 -0.60138715D-13  0.15472335D-29  0.45178631D-30  0.96105649D-14 -0.16002862D-12
  0.93430430D-13  0.66598195D-13 -0.65316881D-29 -0.19617583D-29 -0.29671036D-13
  0.88206665D-12 -0.78278775D-12 -0.99278903D-13  0.15721119D-28  0.48146298D-29
 -0.11424623D-12 -0.32086043D-17  0.17273375D-17  0.14812668D-17  0.56765970D-34
  0.16455794D-34  0.12890117D-16  0.00000000D+00  0.00000000D+00  0.00000000D+00
  0.00000000D+00  0.00000000D+00  0.00000000D+00  0.00000000D+00  0.00000000D+00
  0.00000000D+00  0.00000000D+00  0.00000000D+00  0.00000000D+00  0.00000000D+00
  0.00000000D+00  0.00000000D+00  0.00000000D+00  0.00000000D+00  0.00000000D+00
  0.00000000D+00  0.00000000D+00  0.00000000D+00  0.00000000D+00  0.00000000D+00
  0.00000000D+00  0.00000000D+00  0.00000000D+00  0.00000000D+00  0.00000000D+00
  0.00000000D+00  0.00000000D+00  0.00000000D+00  0.00000000D+00  0.00000000D+00
  0.00000000D+00  0.00000000D+00  0.00000000D+00  0.00000000D+00  0.00000000D+00
  0.00000000D+00  0.00000000D+00  0.00000000D+00  0.00000000D+00  0.00000000D+00
  0.00000000D+00  0.00000000D+00  0.00000000D+00  0.00000000D+00  0.00000000D+00
  0.00000000D+00  0.00000000D+00  0.00000000D+00  0.00000000D+00  0.00000000D+00
  0.00000000D+00  0.00000000D+00  0.00000000D+00  0.00000000D+00  0.00000000D+00
  0.00000000D+00  0.00000000D+00  0.92128399D-14 -0.21760639D-14 -0.33911304D-13
  0.25949102D-14  0.98524125D-14  0.19016573D-30 -0.23290049D-30 -0.85814524D-31
 -0.13323437D-29 -0.21365735D-13 -0.12565389D-14 -0.25203171D-13 -0.16156089D-30
  0.14099772D-29  0.77614843D-14 -0.39812019D-15  0.25581009D-15  0.26380339D-14
 -0.30504847D-15 -0.60881384D-15 -0.51010587D-32  0.59326436D-31  0.21730297D-31
  0.77544042D-31 -0.24931274D-15  0.14771515D-15  0.10148492D-14 -0.21423738D-32
 -0.97319520D-31 -0.12758940D-15 -0.29700970D-12  0.31251230D-13  0.10749704D-11
 -0.37266332D-13 -0.36701900D-12 -0.99399638D-29  0.20789555D-29  0.72338168D-30
  0.57991698D-28  0.70708784D-12  0.18045307D-13  0.11271436D-11  0.96988366D-29
 -0.58684683D-28 -0.30570524D-12  0.19100695D-16 -0.22665623D-16 -0.20018542D-15
  0.27028323D-16  0.44250278D-16 -0.30667846D-34 -0.61625453D-32 -0.22453126D-32
 -0.41036101D-32  0.85581251D-16 -0.13088100D-16 -0.65316249D-16  0.77910539D-33
  0.61577919D-32 -0.33775002D-17  0.00000000D+00  0.00000000D+00  0.00000000D+00
  0.00000000D+00  0.00000000D+00  0.00000000D+00  0.00000000D+00  0.00000000D+00
  0.00000000D+00  0.00000000D+00  0.00000000D+00  0.00000000D+00  0.00000000D+00
  0.00000000D+00  0.00000000D+00  0.00000000D+00  0.00000000D+00  0.00000000D+00
  0.00000000D+00  0.00000000D+00  0.00000000D+00  0.00000000D+00  0.00000000D+00
  0.00000000D+00  0.00000000D+00  0.00000000D+00  0.00000000D+00  0.00000000D+00
  0.00000000D+00  0.00000000D+00  0.00000000D+00  0.00000000D+00  0.00000000D+00
  0.00000000D+00  0.00000000D+00  0.00000000D+00  0.00000000D+00  0.00000000D+00
  0.00000000D+00  0.00000000D+00  0.00000000D+00  0.00000000D+00
MO    2     MO 0.0        OCC NO =    0.0004037  ORB. ENERGY =    0.000000
  0.19323769D+00  0.39590763D+00  0.67948140D+00  0.11001659D+01  0.16879440D+01
  0.23609643D+01  0.29303286D+01  0.28443358D+01  0.17666015D+01 -0.83960598D-02
 -0.17963906D-01 -0.91212584D-01 -0.23571490D+00 -0.66068613D+00 -0.12314258D+01
 -0.16506506D+01 -0.27433068D+00  0.62605689D-02 -0.16903856D-02  0.35438968D-03
 -0.12408467D+01  0.23997911D+01  0.28264061D+01  0.14091560D+01 -0.44100885D-04
  0.00000000D+00  0.00000000D+00  0.00000000D+00  0.00000000D+00  0.00000000D+00
  0.00000000D+00  0.00000000D+00  0.00000000D+00  0.00000000D+00  0.00000000D+00
  0.00000000D+00  0.00000000D+00  0.00000000D+00  0.00000000D+00  0.00000000D+00
  0.00000000D+00  0.00000000D+00  0.00000000D+00  0.00000000D+00  0.00000000D+00
  0.00000000D+00  0.00000000D+00  0.00000000D+00  0.00000000D+00  0.00000000D+00
  0.00000000D+00  0.00000000D+00  0.00000000D+00  0.00000000D+00  0.00000000D+00
  0.00000000D+00  0.00000000D+00  0.00000000D+00  0.00000000D+00  0.00000000D+00
  0.00000000D+00  0.00000000D+00  0.00000000D+00  0.00000000D+00 -0.72149455D-13
  0.38934879D-12 -0.31719933D-12  0.87262055D-31  0.26219838D-31 -0.44956407D-12
 -0.11288312D-14 -0.54508945D-13  0.55637776D-13 -0.14978611D-31 -0.45206044D-32
  0.10818188D-12  0.58820577D-15  0.55501000D-14 -0.61383058D-14  0.18558724D-32
  0.60397739D-33  0.10279334D-13  0.12023352D-15 -0.58896196D-15  0.46872844D-15
 -0.20633757D-33 -0.74157455D-34 -0.11770129D-13  0.64766028D-12 -0.12170677D-11
  0.56940740D-12 -0.24212323D-30 -0.70678915D-31  0.87175283D-12 -0.58006521D-12
  0.19097367D-11 -0.13296715D-11  0.10275784D-29  0.30871141D-30 -0.12773973D-11
 -0.87225124D-12 -0.22156030D-11  0.30878542D-11 -0.24629995D-29 -0.75426613D-30
  0.11446437D-11 -0.27418604D-16  0.44664751D-16 -0.17246147D-16 -0.89026803D-35
 -0.25808062D-35  0.16358297D-14  0.00000000D+00  0.00000000D+00  0.00000000D+00
  0.00000000D+00  0.00000000D+00  0.00000000D+00  0.00000000D+00  0.00000000D+00
  0.00000000D+00  0.00000000D+00  0.00000000D+00  0.00000000D+00  0.00000000D+00
  0.00000000D+00  0.00000000D+00  0.00000000D+00  0.00000000D+00  0.00000000D+00
  0.00000000D+00  0.00000000D+00  0.00000000D+00  0.00000000D+00  0.00000000D+00
  0.00000000D+00  0.00000000D+00  0.00000000D+00  0.00000000D+00  0.00000000D+00
  0.00000000D+00  0.00000000D+00  0.00000000D+00  0.00000000D+00  0.00000000D+00
  0.00000000D+00  0.00000000D+00  0.00000000D+00  0.00000000D+00  0.00000000D+00
  0.00000000D+00  0.00000000D+00  0.00000000D+00  0.00000000D+00  0.00000000D+00
  0.00000000D+00  0.00000000D+00  0.00000000D+00  0.00000000D+00  0.00000000D+00
  0.00000000D+00  0.00000000D+00  0.00000000D+00  0.00000000D+00  0.00000000D+00
  0.00000000D+00  0.00000000D+00  0.00000000D+00  0.00000000D+00  0.00000000D+00
  0.00000000D+00  0.00000000D+00  0.66117877D-12 -0.27010596D-12 -0.20031918D-11
  0.32458875D-12  0.64979340D-12 -0.29822666D-31  0.36523999D-31  0.13457632D-31
  0.20894364D-30 -0.19638809D-11 -0.16344838D-12 -0.18955687D-11  0.25336788D-31
 -0.22111831D-30  0.64324159D-12 -0.40597975D-13  0.31642682D-13  0.12526485D-12
 -0.37533848D-13 -0.40740254D-13  0.79997888D-33 -0.93036974D-32 -0.34077912D-32
 -0.12160733D-31  0.11832300D-12  0.17673496D-13  0.11917668D-12  0.33595151D-33
  0.15261966D-31 -0.39583280D-13 -0.85471386D-11  0.40346135D-11  0.23650452D-10
 -0.48613465D-11 -0.67500665D-11  0.15589676D-29 -0.32604581D-30 -0.11344863D-30
 -0.90953015D-29  0.27632380D-10  0.24801989D-11  0.16849947D-10 -0.15211514D-29
  0.92039835D-29 -0.74137211D-11  0.16621353D-14 -0.28019218D-14 -0.53651561D-14
  0.33003834D-14  0.16949629D-14  0.48082892D-35  0.96642329D-33  0.35211464D-33
  0.64354297D-33 -0.46076555D-14 -0.14953850D-14 -0.48046215D-14 -0.12217983D-33
 -0.96568406D-33  0.15687128D-14  0.00000000D+00  0.00000000D+00  0.00000000D+00
  0.00000000D+00  0.00000000D+00  0.00000000D+00  0.00000000D+00  0.00000000D+00
  0.00000000D+00  0.00000000D+00  0.00000000D+00  0.00000000D+00  0.00000000D+00
  0.00000000D+00  0.00000000D+00  0.00000000D+00  0.00000000D+00  0.00000000D+00
  0.00000000D+00  0.00000000D+00  0.00000000D+00  0.00000000D+00  0.00000000D+00
  0.00000000D+00  0.00000000D+00  0.00000000D+00  0.00000000D+00  0.00000000D+00
  0.00000000D+00  0.00000000D+00  0.00000000D+00  0.00000000D+00  0.00000000D+00
  0.00000000D+00  0.00000000D+00  0.00000000D+00  0.00000000D+00  0.00000000D+00
  0.00000000D+00  0.00000000D+00  0.00000000D+00  0.00000000D+00
MO    3     MO 0.0        OCC NO =    0.0002110  ORB. ENERGY =    0.000000
  0.00000000D+00  0.00000000D+00  0.00000000D+00  0.00000000D+00  0.00000000D+00
  0.00000000D+00  0.00000000D+00  0.00000000D+00  0.00000000D+00  0.00000000D+00
  0.00000000D+00  0.00000000D+00  0.00000000D+00  0.00000000D+00  0.00000000D+00
  0.00000000D+00  0.00000000D+00  0.00000000D+00  0.00000000D+00  0.00000000D+00
  0.00000000D+00  0.00000000D+00  0.00000000D+00  0.00000000D+00  0.00000000D+00
  0.00000000D+00  0.00000000D+00  0.00000000D+00  0.00000000D+00  0.00000000D+00
  0.00000000D+00  0.00000000D+00  0.00000000D+00  0.32994384D+00  0.43195066D+00
  0.47506715D+00  0.44165980D+00  0.00000000D+00  0.00000000D+00  0.25857142D-01
  0.00000000D+00  0.00000000D+00 -0.44787012D-02  0.00000000D+00  0.00000000D+00
  0.77920699D-03  0.00000000D+00  0.00000000D+00 -0.10496842D-03  0.00000000D+00
  0.00000000D+00  0.88356161D+01  0.00000000D+00  0.00000000D+00  0.32157417D+02
  0.00000000D+00  0.00000000D+00  0.27166479D+02  0.00000000D+00  0.00000000D+00
  0.16293910D+02  0.00000000D+00  0.00000000D+00  0.77202120D-05  0.00000000D+00
  0.00000000D+00  0.00000000D+00  0.00000000D+00  0.00000000D+00  0.00000000D+00
  0.00000000D+00  0.00000000D+00  0.00000000D+00  0.00000000D+00  0.00000000D+00
  0.00000000D+00  0.00000000D+00  0.00000000D+00  0.00000000D+00  0.00000000D+00
  0.00000000D+00  0.00000000D+00  0.00000000D+00  0.00000000D+00  0.00000000D+00
  0.00000000D+00  0.00000000D+00  0.00000000D+00  0.00000000D+00  0.00000000D+00
  0.00000000D+00  0.00000000D+00  0.00000000D+00  0.00000000D+00  0.00000000D+00
  0.00000000D+00  0.00000000D+00  0.00000000D+00  0.00000000D+00  0.00000000D+00
  0.00000000D+00  0.00000000D+00  0.00000000D+00  0.00000000D+00  0.00000000D+00
  0.00000000D+00  0.00000000D+00  0.00000000D+00  0.00000000D+00  0.00000000D+00
  0.00000000D+00  0.00000000D+00  0.00000000D+00  0.00000000D+00 -0.45591647D-13
  0.00000000D+00  0.00000000D+00  0.70814334D-13  0.00000000D+00  0.00000000D+00
  0.65960606D-13  0.00000000D+00  0.00000000D+00  0.00000000D+00 -0.26189483D-13
  0.00000000D+00  0.00000000D+00  0.39729234D-13  0.00000000D+00  0.00000000D+00
  0.38839215D-13  0.00000000D+00  0.00000000D+00  0.00000000D+00  0.74803345D-15
  0.00000000D+00  0.00000000D+00 -0.11691019D-14  0.00000000D+00  0.00000000D+00
 -0.10749985D-14  0.00000000D+00  0.00000000D+00  0.00000000D+00  0.12652557D-12
  0.00000000D+00  0.00000000D+00 -0.18482194D-12  0.00000000D+00  0.00000000D+00
 -0.19475476D-12  0.00000000D+00  0.00000000D+00  0.00000000D+00  0.20494359D-11
  0.00000000D+00  0.00000000D+00 -0.27126682D-11  0.00000000D+00  0.00000000D+00
 -0.34356396D-11  0.00000000D+00  0.00000000D+00  0.00000000D+00 -0.11494392D-16
  0.00000000D+00  0.00000000D+00  0.26031945D-16  0.00000000D+00  0.00000000D+00
  0.84512304D-17  0.00000000D+00  0.00000000D+00  0.00000000D+00  0.00000000D+00
  0.00000000D+00  0.00000000D+00  0.00000000D+00  0.00000000D+00  0.00000000D+00
  0.00000000D+00  0.00000000D+00  0.00000000D+00  0.00000000D+00  0.00000000D+00
  0.00000000D+00  0.00000000D+00  0.00000000D+00  0.00000000D+00  0.00000000D+00
  0.00000000D+00  0.00000000D+00  0.00000000D+00  0.00000000D+00  0.00000000D+00
  0.00000000D+00  0.00000000D+00  0.00000000D+00  0.00000000D+00  0.00000000D+00
  0.00000000D+00  0.00000000D+00  0.00000000D+00  0.00000000D+00  0.00000000D+00
  0.00000000D+00  0.00000000D+00  0.00000000D+00  0.00000000D+00  0.00000000D+00
  0.00000000D+00  0.00000000D+00  0.00000000D+00  0.00000000D+00  0.00000000D+00
  0.00000000D+00  0.00000000D+00  0.00000000D+00  0.00000000D+00  0.00000000D+00
  0.00000000D+00  0.00000000D+00  0.00000000D+00  0.00000000D+00  0.00000000D+00
  0.00000000D+00  0.00000000D+00  0.00000000D+00  0.00000000D+00  0.00000000D+00
  0.00000000D+00  0.00000000D+00 -0.18243990D-12  0.00000000D+00  0.91263091D-12
  0.00000000D+00 -0.30033998D-12  0.00000000D+00  0.00000000D+00  0.00000000D+00
  0.00000000D+00  0.00000000D+00  0.00000000D+00  0.91176811D-12  0.00000000D+00
 -0.93585285D-12  0.00000000D+00  0.00000000D+00  0.00000000D+00  0.00000000D+00
 -0.29990858D-12  0.00000000D+00  0.00000000D+00  0.86650411D-14  0.00000000D+00
 -0.43275008D-13  0.00000000D+00  0.43706322D-13  0.00000000D+00  0.00000000D+00
  0.00000000D+00  0.00000000D+00  0.00000000D+00  0.00000000D+00 -0.43375403D-13
  0.00000000D+00 -0.13241291D-12  0.00000000D+00  0.00000000D+00  0.00000000D+00
  0.00000000D+00  0.43756519D-13  0.00000000D+00  0.00000000D+00
MO    4     MO 0.0        OCC NO =    0.0002110  ORB. ENERGY =    0.000000
  0.00000000D+00  0.00000000D+00  0.00000000D+00  0.00000000D+00  0.00000000D+00
  0.00000000D+00  0.00000000D+00  0.00000000D+00  0.00000000D+00  0.00000000D+00
  0.00000000D+00  0.00000000D+00  0.00000000D+00  0.00000000D+00  0.00000000D+00
  0.00000000D+00  0.00000000D+00  0.00000000D+00  0.00000000D+00  0.00000000D+00
  0.00000000D+00  0.00000000D+00  0.00000000D+00  0.00000000D+00  0.00000000D+00
  0.00000000D+00  0.00000000D+00  0.00000000D+00  0.00000000D+00  0.32994384D+00
  0.43195066D+00  0.47506715D+00  0.44165980D+00  0.00000000D+00  0.00000000D+00
  0.00000000D+00  0.00000000D+00  0.00000000D+00  0.25857142D-01  0.00000000D+00
  0.00000000D+00 -0.44787012D-02  0.00000000D+00  0.00000000D+00  0.77920699D-03
  0.00000000D+00  0.00000000D+00 -0.10496842D-03  0.00000000D+00  0.00000000D+00
  0.88356161D+01  0.00000000D+00  0.00000000D+00  0.32157417D+02  0.00000000D+00
  0.00000000D+00  0.27166479D+02  0.00000000D+00  0.00000000D+00  0.16293910D+02
  0.00000000D+00  0.00000000D+00  0.77202120D-05  0.00000000D+00  0.00000000D+00
  0.00000000D+00  0.00000000D+00  0.00000000D+00  0.00000000D+00  0.00000000D+00
  0.00000000D+00  0.00000000D+00  0.00000000D+00  0.00000000D+00  0.00000000D+00
  0.00000000D+00  0.00000000D+00  0.00000000D+00  0.00000000D+00  0.00000000D+00
  0.00000000D+00  0.00000000D+00  0.00000000D+00  0.00000000D+00  0.00000000D+00
  0.00000000D+00  0.00000000D+00  0.00000000D+00  0.00000000D+00  0.00000000D+00
  0.00000000D+00  0.00000000D+00  0.00000000D+00  0.00000000D+00  0.00000000D+00
  0.00000000D+00  0.00000000D+00  0.00000000D+00  0.00000000D+00  0.00000000D+00
  0.00000000D+00  0.00000000D+00  0.00000000D+00  0.00000000D+00  0.00000000D+00
  0.00000000D+00  0.00000000D+00  0.00000000D+00  0.00000000D+00  0.00000000D+00
  0.00000000D+00  0.00000000D+00  0.00000000D+00 -0.47908788D-13  0.00000000D+00
  0.00000000D+00  0.72679442D-13  0.00000000D+00  0.00000000D+00  0.71046923D-13
  0.00000000D+00  0.00000000D+00  0.00000000D+00 -0.25626358D-13  0.00000000D+00
  0.00000000D+00  0.39995287D-13  0.00000000D+00  0.00000000D+00  0.36883788D-13
  0.00000000D+00  0.00000000D+00  0.00000000D+00  0.74119246D-15  0.00000000D+00
  0.00000000D+00 -0.13330052D-14  0.00000000D+00  0.00000000D+00 -0.89057214D-15
  0.00000000D+00  0.00000000D+00  0.00000000D+00  0.20088410D-12  0.00000000D+00
  0.00000000D+00 -0.32435514D-12  0.00000000D+00  0.00000000D+00 -0.27829714D-12
  0.00000000D+00  0.00000000D+00  0.00000000D+00  0.11482037D-11  0.00000000D+00
  0.00000000D+00  0.27432962D-12  0.00000000D+00  0.00000000D+00 -0.37189406D-11
  0.00000000D+00  0.00000000D+00  0.00000000D+00 -0.15468984D-16  0.00000000D+00
  0.00000000D+00  0.26093802D-16  0.00000000D+00  0.00000000D+00  0.20313150D-16
  0.00000000D+00  0.00000000D+00  0.00000000D+00  0.00000000D+00  0.00000000D+00
  0.00000000D+00  0.00000000D+00  0.00000000D+00  0.00000000D+00  0.00000000D+00
  0.00000000D+00  0.00000000D+00  0.00000000D+00  0.00000000D+00  0.00000000D+00
  0.00000000D+00  0.00000000D+00  0.00000000D+00  0.00000000D+00  0.00000000D+00
  0.00000000D+00  0.00000000D+00  0.00000000D+00  0.00000000D+00  0.00000000D+00
  0.00000000D+00  0.00000000D+00  0.00000000D+00  0.00000000D+00  0.00000000D+00
  0.00000000D+00  0.00000000D+00  0.00000000D+00  0.00000000D+00  0.00000000D+00
  0.00000000D+00  0.00000000D+00  0.00000000D+00  0.00000000D+00  0.00000000D+00
  0.00000000D+00  0.00000000D+00  0.00000000D+00  0.00000000D+00  0.00000000D+00
  0.00000000D+00  0.00000000D+00  0.00000000D+00  0.00000000D+00  0.00000000D+00
  0.00000000D+00  0.00000000D+00  0.00000000D+00  0.00000000D+00  0.00000000D+00
  0.00000000D+00  0.00000000D+00  0.00000000D+00  0.00000000D+00  0.00000000D+00
  0.00000000D+00  0.00000000D+00  0.00000000D+00 -0.29840896D-12  0.00000000D+00
  0.91307327D-12  0.00000000D+00 -0.18238350D-12  0.00000000D+00  0.00000000D+00
  0.00000000D+00  0.00000000D+00  0.00000000D+00  0.00000000D+00 -0.94876606D-12
  0.00000000D+00  0.91076171D-12  0.00000000D+00  0.00000000D+00  0.00000000D+00
  0.00000000D+00 -0.29725318D-12  0.00000000D+00  0.00000000D+00  0.43792837D-13
  0.00000000D+00 -0.43184951D-13  0.00000000D+00  0.86557331D-14  0.00000000D+00
  0.00000000D+00  0.00000000D+00  0.00000000D+00  0.00000000D+00  0.00000000D+00
 -0.13320217D-12  0.00000000D+00 -0.43372380D-13  0.00000000D+00  0.00000000D+00
  0.00000000D+00  0.00000000D+00  0.43886552D-13  0.00000000D+00
MO    5     MO 0.0        OCC NO =    0.0002110  ORB. ENERGY =    0.000000
  0.00000000D+00  0.00000000D+00  0.00000000D+00  0.00000000D+00  0.00000000D+00
  0.00000000D+00  0.00000000D+00  0.00000000D+00  0.00000000D+00  0.00000000D+00
  0.00000000D+00  0.00000000D+00  0.00000000D+00  0.00000000D+00  0.00000000D+00
  0.00000000D+00  0.00000000D+00  0.00000000D+00  0.00000000D+00  0.00000000D+00
  0.00000000D+00  0.00000000D+00  0.00000000D+00  0.00000000D+00  0.00000000D+00
  0.32994384D+00  0.43195066D+00  0.47506715D+00  0.44165980D+00  0.00000000D+00
  0.00000000D+00  0.00000000D+00  0.00000000D+00  0.00000000D+00  0.00000000D+00
  0.00000000D+00  0.00000000D+00  0.25857142D-01  0.00000000D+00  0.00000000D+00
 -0.44787012D-02  0.00000000D+00  0.00000000D+00  0.77920699D-03  0.00000000D+00
  0.00000000D+00 -0.10496842D-03  0.00000000D+00  0.00000000D+00  0.88356161D+01
  0.00000000D+00  0.00000000D+00  0.32157417D+02  0.00000000D+00  0.00000000D+00
  0.27166479D+02  0.00000000D+00  0.00000000D+00  0.16293910D+02  0.00000000D+00
  0.00000000D+00  0.77202120D-05  0.00000000D+00  0.00000000D+00  0.00000000D+00
  0.00000000D+00  0.00000000D+00  0.00000000D+00  0.00000000D+00  0.00000000D+00
  0.00000000D+00  0.00000000D+00  0.00000000D+00  0.00000000D+00  0.00000000D+00
  0.00000000D+00  0.00000000D+00  0.00000000D+00  0.00000000D+00  0.00000000D+00
  0.00000000D+00  0.00000000D+00  0.00000000D+00  0.00000000D+00  0.00000000D+00
  0.00000000D+00  0.00000000D+00  0.00000000D+00  0.00000000D+00  0.00000000D+00
  0.00000000D+00  0.00000000D+00  0.00000000D+00  0.00000000D+00  0.00000000D+00
  0.00000000D+00  0.00000000D+00  0.00000000D+00  0.00000000D+00  0.00000000D+00
  0.00000000D+00  0.00000000D+00  0.00000000D+00  0.00000000D+00  0.00000000D+00
  0.00000000D+00  0.00000000D+00  0.00000000D+00  0.00000000D+00  0.00000000D+00
  0.00000000D+00  0.00000000D+00 -0.49981789D-13  0.00000000D+00  0.00000000D+00
  0.77707416D-13  0.00000000D+00  0.00000000D+00  0.72237953D-13  0.00000000D+00
  0.00000000D+00  0.00000000D+00 -0.25800318D-13  0.00000000D+00  0.00000000D+00
  0.37983316D-13  0.00000000D+00  0.00000000D+00  0.39417638D-13  0.00000000D+00
  0.00000000D+00  0.00000000D+00  0.81649353D-15  0.00000000D+00  0.00000000D+00
 -0.99407248D-15  0.00000000D+00  0.00000000D+00 -0.14554081D-14  0.00000000D+00
  0.00000000D+00  0.00000000D+00  0.29762894D-12  0.00000000D+00  0.00000000D+00
 -0.51094145D-12  0.00000000D+00  0.00000000D+00 -0.38194537D-12  0.00000000D+00
  0.00000000D+00  0.00000000D+00  0.10612490D-11  0.00000000D+00  0.00000000D+00
 -0.96141192D-12  0.00000000D+00  0.00000000D+00 -0.22223351D-11  0.00000000D+00
  0.00000000D+00  0.00000000D+00 -0.10578041D-16  0.00000000D+00  0.00000000D+00
  0.13847279D-16  0.00000000D+00  0.00000000D+00  0.17886845D-16  0.00000000D+00
  0.00000000D+00  0.00000000D+00  0.00000000D+00  0.00000000D+00  0.00000000D+00
  0.00000000D+00  0.00000000D+00  0.00000000D+00  0.00000000D+00  0.00000000D+00
  0.00000000D+00  0.00000000D+00  0.00000000D+00  0.00000000D+00  0.00000000D+00
  0.00000000D+00  0.00000000D+00  0.00000000D+00  0.00000000D+00  0.00000000D+00
  0.00000000D+00  0.00000000D+00  0.00000000D+00  0.00000000D+00  0.00000000D+00
  0.00000000D+00  0.00000000D+00  0.00000000D+00  0.00000000D+00  0.00000000D+00
  0.00000000D+00  0.00000000D+00  0.00000000D+00  0.00000000D+00  0.00000000D+00
  0.00000000D+00  0.00000000D+00  0.00000000D+00  0.00000000D+00  0.00000000D+00
  0.00000000D+00  0.00000000D+00  0.00000000D+00  0.00000000D+00  0.00000000D+00
  0.00000000D+00  0.00000000D+00  0.00000000D+00  0.00000000D+00  0.00000000D+00
  0.00000000D+00  0.00000000D+00  0.00000000D+00  0.00000000D+00  0.00000000D+00
  0.00000000D+00  0.00000000D+00  0.00000000D+00  0.00000000D+00  0.00000000D+00
  0.00000000D+00  0.00000000D+00  0.00000000D+00  0.00000000D+00  0.00000000D+00
  0.00000000D+00  0.00000000D+00  0.00000000D+00 -0.29966497D-12  0.00000000D+00
 -0.93911329D-12  0.00000000D+00 -0.29927496D-12  0.00000000D+00  0.00000000D+00
  0.00000000D+00  0.00000000D+00  0.91236770D-12  0.00000000D+00  0.91158769D-12
  0.00000000D+00  0.00000000D+00 -0.18239554D-12  0.00000000D+00  0.00000000D+00
  0.00000000D+00  0.00000000D+00  0.00000000D+00  0.00000000D+00  0.43763477D-13
  0.00000000D+00 -0.13275530D-12  0.00000000D+00  0.43751171D-13  0.00000000D+00
  0.00000000D+00  0.00000000D+00  0.00000000D+00 -0.43275189D-13  0.00000000D+00
 -0.43250577D-13  0.00000000D+00  0.00000000D+00  0.86525766D-14
MO    6     MO 0.0        OCC NO =    0.0000096  ORB. ENERGY =    0.000000
  0.36359460D+00  0.74493684D+00  0.12785071D+01  0.20700639D+01  0.31760228D+01
  0.44423728D+01  0.55136845D+01  0.53518809D+01  0.33240243D+01  0.12355894D-01
  0.26436224D-01  0.13423118D+00  0.34688514D+00  0.97228557D+00  0.18122033D+01
  0.24291471D+01  0.41972286D+00  0.85995436D-02 -0.22375360D-02  0.52813892D-03
 -0.96221709D+01 -0.13595706D+02  0.53810703D+01  0.86114978D+01 -0.68895826D-04
  0.00000000D+00  0.00000000D+00  0.00000000D+00  0.00000000D+00  0.00000000D+00