 Title Card Required
GAUSSIAN            165 MOL ORBITALS    274 PRIMITIVES        1 NUCLEI
  Ne   1    (CENTRE  1)   0.00000000  0.00000000  0.00000000  CHARGE = 10.0
CENTRE ASSIGNMENTS    1  1  1  1  1  1  1  1  1  1  1  1  1  1  1  1  1  1  1  1
CENTRE ASSIGNMENTS    1  1  1  1  1  1  1  1  1  1  1  1  1  1  1  1  1  1  1  1
CENTRE ASSIGNMENTS    1  1  1  1  1  1  1  1  1  1  1  1  1  1  1  1  1  1  1  1
CENTRE ASSIGNMENTS    1  1  1  1  1  1  1  1  1  1  1  1  1  1  1  1  1  1  1  1
CENTRE ASSIGNMENTS    1  1  1  1  1  1  1  1  1  1  1  1  1  1  1  1  1  1  1  1
CENTRE ASSIGNMENTS    1  1  1  1  1  1  1  1  1  1  1  1  1  1  1  1  1  1  1  1
CENTRE ASSIGNMENTS    1  1  1  1  1  1  1  1  1  1  1  1  1  1  1  1  1  1  1  1
CENTRE ASSIGNMENTS    1  1  1  1  1  1  1  1  1  1  1  1  1  1  1  1  1  1  1  1
CENTRE ASSIGNMENTS    1  1  1  1  1  1  1  1  1  1  1  1  1  1  1  1  1  1  1  1
CENTRE ASSIGNMENTS    1  1  1  1  1  1  1  1  1  1  1  1  1  1  1  1  1  1  1  1
CENTRE ASSIGNMENTS    1  1  1  1  1  1  1  1  1  1  1  1  1  1  1  1  1  1  1  1
CENTRE ASSIGNMENTS    1  1  1  1  1  1  1  1  1  1  1  1  1  1  1  1  1  1  1  1
CENTRE ASSIGNMENTS    1  1  1  1  1  1  1  1  1  1  1  1  1  1  1  1  1  1  1  1
CENTRE ASSIGNMENTS    1  1  1  1  1  1  1  1  1  1  1  1  1  1
TYPE ASSIGNMENTS      1  1  1  1  1  1  1  1  1  1  1  1  1  1  1  1  1  1  1  1
TYPE ASSIGNMENTS      1  1  1  1  1  2  2  2  2  3  3  3  3  4  4  4  4  2  3  4
TYPE ASSIGNMENTS      2  3  4  2  3  4  2  3  4  2  3  4  2  3  4  2  3  4  2  3
TYPE ASSIGNMENTS      4  2  3  4  5  6  7  8  9 10  5  6  7  8  9 10  5  6  7  8
TYPE ASSIGNMENTS      9 10  5  6  7  8  9 10  5  6  7  8  9 10  5  6  7  8  9 10
TYPE ASSIGNMENTS      5  6  7  8  9 10  5  6  7  8  9 10 11 12 13 17 14 15 18 19
TYPE ASSIGNMENTS     16 20 11 12 13 17 14 15 18 19 16 20 11 12 13 17 14 15 18 19
TYPE ASSIGNMENTS     16 20 11 12 13 17 14 15 18 19 16 20 11 12 13 17 14 15 18 19
TYPE ASSIGNMENTS     16 20 11 12 13 17 14 15 18 19 16 20 23 29 32 27 22 28 35 34
TYPE ASSIGNMENTS     26 31 33 30 25 24 21 23 29 32 27 22 28 35 34 26 31 33 30 25
TYPE ASSIGNMENTS     24 21 23 29 32 27 22 28 35 34 26 31 33 30 25 24 21 23 29 32
TYPE ASSIGNMENTS     27 22 28 35 34 26 31 33 30 25 24 21 36 37 38 39 40 41 42 43
TYPE ASSIGNMENTS     44 45 46 47 48 49 50 51 52 53 54 55 56 36 37 38 39 40 41 42
TYPE ASSIGNMENTS     43 44 45 46 47 48 49 50 51 52 53 54 55 56
EXPONENTS  0.2627000D+06 0.3935000D+05 0.8955000D+04 0.2538000D+04 0.8299000D+03
EXPONENTS  0.3015000D+03 0.1190000D+03 0.5000000D+02 0.2198000D+02 0.2538000D+04
EXPONENTS  0.8299000D+03 0.3015000D+03 0.1190000D+03 0.5000000D+02 0.2198000D+02
EXPONENTS  0.9891000D+01 0.4327000D+01 0.1804000D+01 0.7288000D+00 0.2867000D+00
EXPONENTS  0.1985600D+02 0.4254100D+02 0.9113900D+02 0.1952560D+03 0.9570000D-01
EXPONENTS  0.2991000D+03 0.7073000D+02 0.2248000D+02 0.8246000D+01 0.2991000D+03
EXPONENTS  0.7073000D+02 0.2248000D+02 0.8246000D+01 0.2991000D+03 0.7073000D+02
EXPONENTS  0.2248000D+02 0.8246000D+01 0.3269000D+01 0.3269000D+01 0.3269000D+01
EXPONENTS  0.1315000D+01 0.1315000D+01 0.1315000D+01 0.5158000D+00 0.5158000D+00
EXPONENTS  0.5158000D+00 0.1918000D+00 0.1918000D+00 0.1918000D+00 0.1809300D+02
EXPONENTS  0.1809300D+02 0.1809300D+02 0.4346900D+02 0.4346900D+02 0.4346900D+02
EXPONENTS  0.1044380D+03 0.1044380D+03 0.1044380D+03 0.2509190D+03 0.2509190D+03
EXPONENTS  0.2509190D+03 0.6540000D-01 0.6540000D-01 0.6540000D-01 0.9837000D+01
EXPONENTS  0.9837000D+01 0.9837000D+01 0.9837000D+01 0.9837000D+01 0.9837000D+01
EXPONENTS  0.3844000D+01 0.3844000D+01 0.3844000D+01 0.3844000D+01 0.3844000D+01
EXPONENTS  0.3844000D+01 0.1502000D+01 0.1502000D+01 0.1502000D+01 0.1502000D+01
EXPONENTS  0.1502000D+01 0.1502000D+01 0.5870000D+00 0.5870000D+00 0.5870000D+00
EXPONENTS  0.5870000D+00 0.5870000D+00 0.5870000D+00 0.2311500D+02 0.2311500D+02
EXPONENTS  0.2311500D+02 0.2311500D+02 0.2311500D+02 0.2311500D+02 0.5898300D+02
EXPONENTS  0.5898300D+02 0.5898300D+02 0.5898300D+02 0.5898300D+02 0.5898300D+02
EXPONENTS  0.1505080D+03 0.1505080D+03 0.1505080D+03 0.1505080D+03 0.1505080D+03
EXPONENTS  0.1505080D+03 0.2130000D+00 0.2130000D+00 0.2130000D+00 0.2130000D+00
EXPONENTS  0.2130000D+00 0.2130000D+00 0.7090000D+01 0.7090000D+01 0.7090000D+01
EXPONENTS  0.7090000D+01 0.7090000D+01 0.7090000D+01 0.7090000D+01 0.7090000D+01
EXPONENTS  0.7090000D+01 0.7090000D+01 0.2738000D+01 0.2738000D+01 0.2738000D+01
EXPONENTS  0.2738000D+01 0.2738000D+01 0.2738000D+01 0.2738000D+01 0.2738000D+01
EXPONENTS  0.2738000D+01 0.2738000D+01 0.1057000D+01 0.1057000D+01 0.1057000D+01
EXPONENTS  0.1057000D+01 0.1057000D+01 0.1057000D+01 0.1057000D+01 0.1057000D+01
EXPONENTS  0.1057000D+01 0.1057000D+01 0.2146000D+02 0.2146000D+02 0.2146000D+02
EXPONENTS  0.2146000D+02 0.2146000D+02 0.2146000D+02 0.2146000D+02 0.2146000D+02
EXPONENTS  0.2146000D+02 0.2146000D+02 0.6236800D+02 0.6236800D+02 0.6236800D+02
EXPONENTS  0.6236800D+02 0.6236800D+02 0.6236800D+02 0.6236800D+02 0.6236800D+02
EXPONENTS  0.6236800D+02 0.6236800D+02 0.4250000D+00 0.4250000D+00 0.4250000D+00
EXPONENTS  0.4250000D+00 0.4250000D+00 0.4250000D+00 0.4250000D+00 0.4250000D+00
EXPONENTS  0.4250000D+00 0.4250000D+00 0.5460000D+01 0.5460000D+01 0.5460000D+01
EXPONENTS  0.5460000D+01 0.5460000D+01 0.5460000D+01 0.5460000D+01 0.5460000D+01
EXPONENTS  0.5460000D+01 0.5460000D+01 0.5460000D+01 0.5460000D+01 0.5460000D+01
EXPONENTS  0.5460000D+01 0.5460000D+01 0.1880000D+01 0.1880000D+01 0.1880000D+01
EXPONENTS  0.1880000D+01 0.1880000D+01 0.1880000D+01 0.1880000D+01 0.1880000D+01
EXPONENTS  0.1880000D+01 0.1880000D+01 0.1880000D+01 0.1880000D+01 0.1880000D+01
EXPONENTS  0.1880000D+01 0.1880000D+01 0.2497300D+02 0.2497300D+02 0.2497300D+02
EXPONENTS  0.2497300D+02 0.2497300D+02 0.2497300D+02 0.2497300D+02 0.2497300D+02
EXPONENTS  0.2497300D+02 0.2497300D+02 0.2497300D+02 0.2497300D+02 0.2497300D+02
EXPONENTS  0.2497300D+02 0.2497300D+02 0.8090000D+00 0.8090000D+00 0.8090000D+00
EXPONENTS  0.8090000D+00 0.8090000D+00 0.8090000D+00 0.8090000D+00 0.8090000D+00
EXPONENTS  0.8090000D+00 0.8090000D+00 0.8090000D+00 0.8090000D+00 0.8090000D+00
EXPONENTS  0.8090000D+00 0.8090000D+00 0.3776000D+01 0.3776000D+01 0.3776000D+01
EXPONENTS  0.3776000D+01 0.3776000D+01 0.3776000D+01 0.3776000D+01 0.3776000D+01
EXPONENTS  0.3776000D+01 0.3776000D+01 0.3776000D+01 0.3776000D+01 0.3776000D+01
EXPONENTS  0.3776000D+01 0.3776000D+01 0.3776000D+01 0.3776000D+01 0.3776000D+01
EXPONENTS  0.3776000D+01 0.3776000D+01 0.3776000D+01 0.1628000D+01 0.1628000D+01
EXPONENTS  0.1628000D+01 0.1628000D+01 0.1628000D+01 0.1628000D+01 0.1628000D+01
EXPONENTS  0.1628000D+01 0.1628000D+01 0.1628000D+01 0.1628000D+01 0.1628000D+01
EXPONENTS  0.1628000D+01 0.1628000D+01 0.1628000D+01 0.1628000D+01 0.1628000D+01
EXPONENTS  0.1628000D+01 0.1628000D+01 0.1628000D+01 0.1628000D+01
MO    1     MO 0.0        OCC NO =    1.9994304  ORB. ENERGY =    0.000000
  0.22011135D+00  0.40211127D+00  0.69503707D+00  0.11288501D+01  0.17290780D+01
  0.24237096D+01  0.30016321D+01  0.29014893D+01  0.16923511D+01  0.24890745D-02
  0.10848886D-01  0.61157579D-01  0.18392449D+00  0.51330098D+00  0.98357269D+00
  0.11237288D+01  0.11287211D+00 -0.13972134D-01 -0.21630393D-02 -0.19001462D-05
  0.21061781D-01  0.61893276D-02  0.26294060D-02  0.19829315D-03 -0.68763829D-07
  0.00000000D+00  0.00000000D+00  0.00000000D+00  0.00000000D+00  0.00000000D+00
  0.00000000D+00  0.00000000D+00  0.00000000D+00  0.00000000D+00  0.00000000D+00
  0.00000000D+00  0.00000000D+00  0.00000000D+00  0.00000000D+00  0.00000000D+00
  0.00000000D+00  0.00000000D+00  0.00000000D+00  0.00000000D+00  0.00000000D+00
  0.00000000D+00  0.00000000D+00  0.00000000D+00  0.00000000D+00  0.00000000D+00
  0.00000000D+00  0.00000000D+00  0.00000000D+00  0.00000000D+00  0.00000000D+00
  0.00000000D+00  0.00000000D+00  0.00000000D+00  0.00000000D+00  0.00000000D+00
  0.00000000D+00  0.00000000D+00  0.00000000D+00  0.00000000D+00  0.69699023D-13
 -0.12917939D-12  0.59480367D-13 -0.21261202D-29 -0.54038325D-30  0.20754359D-15
 -0.14669772D-13  0.22089281D-13 -0.74195093D-14  0.40256041D-30  0.10346431D-30
 -0.68368037D-16  0.23271912D-14 -0.32970147D-14  0.96982350D-15 -0.11570099D-30
 -0.29674414D-31  0.50595488D-16 -0.37525258D-15  0.37974178D-15 -0.44891957D-17
  0.22437285D-31  0.62436616D-32 -0.90898625D-17 -0.25763011D-12  0.51363746D-12
 -0.25600735D-12  0.31003706D-29  0.45712103D-30 -0.29594979D-15  0.10843308D-11
 -0.16571184D-11  0.57278765D-12  0.25166296D-28  0.94084127D-29  0.14574864D-13
 -0.21522296D-11  0.23238135D-11 -0.17158397D-12 -0.31278317D-27 -0.93561205D-28
 -0.10030929D-12  0.30487054D-16 -0.36380397D-16  0.58933428D-17 -0.12412386D-32
 -0.32067319D-33  0.27232843D-18  0.00000000D+00  0.00000000D+00  0.00000000D+00
  0.00000000D+00  0.00000000D+00  0.00000000D+00  0.00000000D+00  0.00000000D+00
  0.00000000D+00  0.00000000D+00  0.00000000D+00  0.00000000D+00  0.00000000D+00
  0.00000000D+00  0.00000000D+00  0.00000000D+00  0.00000000D+00  0.00000000D+00
  0.00000000D+00  0.00000000D+00  0.00000000D+00  0.00000000D+00  0.00000000D+00
  0.00000000D+00  0.00000000D+00  0.00000000D+00  0.00000000D+00  0.00000000D+00
  0.00000000D+00  0.00000000D+00  0.00000000D+00  0.00000000D+00  0.00000000D+00
  0.00000000D+00  0.00000000D+00  0.00000000D+00  0.00000000D+00  0.00000000D+00
  0.00000000D+00  0.00000000D+00  0.00000000D+00  0.00000000D+00  0.00000000D+00
  0.00000000D+00  0.00000000D+00  0.00000000D+00  0.00000000D+00  0.00000000D+00
  0.00000000D+00  0.00000000D+00  0.00000000D+00  0.00000000D+00  0.00000000D+00
  0.00000000D+00  0.00000000D+00  0.00000000D+00  0.00000000D+00  0.00000000D+00
  0.00000000D+00  0.00000000D+00 -0.25802571D-13  0.23154962D-14  0.35757504D-13
  0.19495144D-13 -0.44267592D-13 -0.73669094D-30 -0.24471609D-29 -0.93865114D-30
  0.39255196D-31  0.11905792D-12 -0.65431921D-13  0.22984805D-12  0.10495747D-29
  0.77646512D-30 -0.58150995D-13  0.12179803D-14  0.69232190D-16 -0.14732287D-14
  0.71635671D-16  0.11920713D-14  0.58159753D-31  0.65476687D-30  0.23549981D-30
 -0.55348817D-31 -0.58346533D-14 -0.42260358D-15 -0.56791989D-14 -0.13665969D-30
 -0.16290681D-30  0.19189754D-14 -0.17727388D-11 -0.16837450D-12  0.27871293D-11
 -0.11859265D-11 -0.14185432D-11 -0.12814270D-27 -0.68952204D-28 -0.27488888D-28
  0.57495286D-27  0.78493036D-11  0.40629031D-11  0.57241296D-11  0.13730566D-27
 -0.55196879D-27 -0.22622389D-11  0.34962386D-15 -0.15234085D-16 -0.87695773D-15
 -0.72067372D-16  0.23873400D-15 -0.38698336D-33 -0.27878541D-31 -0.10433539D-31
 -0.32303816D-31 -0.12207854D-14  0.26190437D-15 -0.55544628D-15  0.38648296D-32
  0.41596663D-31  0.29603862D-15  0.00000000D+00  0.00000000D+00  0.00000000D+00
  0.00000000D+00  0.00000000D+00  0.00000000D+00  0.00000000D+00  0.00000000D+00
  0.00000000D+00  0.00000000D+00  0.00000000D+00  0.00000000D+00  0.00000000D+00
  0.00000000D+00  0.00000000D+00  0.00000000D+00  0.00000000D+00  0.00000000D+00
  0.00000000D+00  0.00000000D+00  0.00000000D+00  0.00000000D+00  0.00000000D+00
  0.00000000D+00  0.00000000D+00  0.00000000D+00  0.00000000D+00  0.00000000D+00
  0.00000000D+00  0.00000000D+00  0.00000000D+00  0.00000000D+00  0.00000000D+00
  0.00000000D+00  0.00000000D+00  0.00000000D+00  0.00000000D+00  0.00000000D+00
  0.00000000D+00  0.00000000D+00  0.00000000D+00  0.00000000D+00
MO    2     MO 0.0        OCC NO =    1.8784506  ORB. ENERGY =    0.000000
 -0.61617624D-01 -0.11256639D+00 -0.19456758D+00 -0.31600853D+00 -0.48403536D+00
 -0.67848945D+00 -0.84027215D+00 -0.81223834D+00 -0.47375409D+00 -0.17949462D-02
 -0.78234567D-02 -0.44102563D-01 -0.13263346D+00 -0.37015672D+00 -0.70928374D+00
 -0.81035453D+00  0.19300368D+00  0.83558033D+00  0.18833746D+00 -0.61299316D-02
  0.93201905D-02  0.11320798D-01  0.55470250D-02  0.15615283D-02  0.64390729D-03
  0.00000000D+00  0.00000000D+00  0.00000000D+00  0.00000000D+00  0.00000000D+00
  0.00000000D+00  0.00000000D+00  0.00000000D+00  0.00000000D+00  0.00000000D+00
  0.00000000D+00  0.00000000D+00  0.00000000D+00  0.00000000D+00  0.00000000D+00
  0.00000000D+00  0.00000000D+00  0.00000000D+00  0.00000000D+00  0.00000000D+00
  0.00000000D+00  0.00000000D+00  0.00000000D+00  0.00000000D+00  0.00000000D+00
  0.00000000D+00  0.00000000D+00  0.00000000D+00  0.00000000D+00  0.00000000D+00
  0.00000000D+00  0.00000000D+00  0.00000000D+00  0.00000000D+00  0.00000000D+00
  0.00000000D+00  0.00000000D+00  0.00000000D+00  0.00000000D+00 -0.16331524D-13
 -0.57397696D-13  0.73729220D-13 -0.10329919D-29 -0.31574785D-30  0.32484261D-14
  0.85689812D-14 -0.12333266D-14 -0.73356546D-14  0.15895049D-32 -0.14889591D-32
 -0.11825564D-14 -0.23775081D-14 -0.30784827D-14  0.54559908D-14  0.65207487D-31
  0.23969281D-31 -0.31392238D-15  0.44128976D-15  0.79584928D-16 -0.52087468D-15
  0.37192627D-33  0.16410167D-33 -0.31027911D-16 -0.86930044D-14  0.12372431D-12
 -0.11503130D-12  0.30134738D-29  0.99085424D-30  0.86374445D-13 -0.21739077D-12
 -0.17698689D-12  0.39437766D-12 -0.27403429D-29 -0.20820921D-29  0.16277727D-12
  0.10889022D-11  0.10501216D-11 -0.21390237D-11 -0.53619201D-28 -0.61380921D-29
  0.99419686D-13 -0.27778652D-16 -0.55411266D-17  0.33319779D-16 -0.19670193D-32
 -0.60846263D-33  0.10418276D-16  0.00000000D+00  0.00000000D+00  0.00000000D+00
  0.00000000D+00  0.00000000D+00  0.00000000D+00  0.00000000D+00  0.00000000D+00
  0.00000000D+00  0.00000000D+00  0.00000000D+00  0.00000000D+00  0.00000000D+00
  0.00000000D+00  0.00000000D+00  0.00000000D+00  0.00000000D+00  0.00000000D+00
  0.00000000D+00  0.00000000D+00  0.00000000D+00  0.00000000D+00  0.00000000D+00
  0.00000000D+00  0.00000000D+00  0.00000000D+00  0.00000000D+00  0.00000000D+00
  0.00000000D+00  0.00000000D+00  0.00000000D+00  0.00000000D+00  0.00000000D+00
  0.00000000D+00  0.00000000D+00  0.00000000D+00  0.00000000D+00  0.00000000D+00
  0.00000000D+00  0.00000000D+00  0.00000000D+00  0.00000000D+00  0.00000000D+00
  0.00000000D+00  0.00000000D+00  0.00000000D+00  0.00000000D+00  0.00000000D+00
  0.00000000D+00  0.00000000D+00  0.00000000D+00  0.00000000D+00  0.00000000D+00
  0.00000000D+00  0.00000000D+00  0.00000000D+00  0.00000000D+00  0.00000000D+00
  0.00000000D+00  0.00000000D+00  0.97125727D-13 -0.12609831D-14 -0.27952474D-12
  0.21628520D-14  0.76980897D-13  0.43292246D-30 -0.19481678D-29 -0.64296975D-30
 -0.21851580D-30 -0.30322962D-12 -0.27056065D-14 -0.18236064D-12 -0.21859921D-30
  0.86790507D-30  0.80931710D-13 -0.12489722D-13 -0.12999568D-16  0.35573615D-13
  0.21715680D-16 -0.11573269D-13 -0.85313364D-31  0.46669570D-30  0.17491198D-30
  0.10941211D-29  0.39364715D-13 -0.26148336D-16  0.33866001D-13  0.27009370D-31
 -0.12496864D-29 -0.12205119D-13 -0.31755209D-12  0.80498984D-13 -0.21224574D-11
 -0.13780945D-12  0.12835468D-11  0.13438817D-27  0.90611894D-28  0.29799850D-28
 -0.90387645D-27  0.40277700D-11  0.17193141D-12 -0.55788232D-11 -0.14432145D-27
  0.87367248D-27  0.25850887D-12 -0.10791580D-14  0.55809782D-17  0.31666271D-14
 -0.95086971D-17 -0.10680723D-14  0.76928306D-32  0.10731360D-32  0.42902175D-33
 -0.42375625D-31  0.33083207D-14  0.11783157D-16  0.32418067D-14 -0.78358379D-32
  0.42017913D-31 -0.10916879D-14  0.00000000D+00  0.00000000D+00  0.00000000D+00
  0.00000000D+00  0.00000000D+00  0.00000000D+00  0.00000000D+00  0.00000000D+00
  0.00000000D+00  0.00000000D+00  0.00000000D+00  0.00000000D+00  0.00000000D+00
  0.00000000D+00  0.00000000D+00  0.00000000D+00  0.00000000D+00  0.00000000D+00
  0.00000000D+00  0.00000000D+00  0.00000000D+00  0.00000000D+00  0.00000000D+00
  0.00000000D+00  0.00000000D+00  0.00000000D+00  0.00000000D+00  0.00000000D+00
  0.00000000D+00  0.00000000D+00  0.00000000D+00  0.00000000D+00  0.00000000D+00
  0.00000000D+00  0.00000000D+00  0.00000000D+00  0.00000000D+00  0.00000000D+00
  0.00000000D+00  0.00000000D+00  0.00000000D+00  0.00000000D+00
MO    3     MO 0.0        OCC NO =    0.0403748  ORB. ENERGY =    0.000000
  0.00000000D+00  0.00000000D+00  0.00000000D+00  0.00000000D+00  0.00000000D+00
  0.00000000D+00  0.00000000D+00  0.00000000D+00  0.00000000D+00  0.00000000D+00
  0.00000000D+00  0.00000000D+00  0.00000000D+00  0.00000000D+00  0.00000000D+00
  0.00000000D+00  0.00000000D+00  0.00000000D+00  0.00000000D+00  0.00000000D+00
  0.00000000D+00  0.00000000D+00  0.00000000D+00  0.00000000D+00  0.00000000D+00
  0.00000000D+00  0.00000000D+00  0.00000000D+00  0.00000000D+00  0.00000000D+00
  0.00000000D+00  0.00000000D+00  0.00000000D+00  0.24528793D+01  0.32636057D+01
  0.36912003D+01  0.33994793D+01  0.00000000D+00  0.00000000D+00  0.31301260D+01
  0.00000000D+00  0.00000000D+00  0.80849153D+00  0.00000000D+00  0.00000000D+00
  0.64622165D-02  0.00000000D+00  0.00000000D+00  0.91350143D-03  0.00000000D+00
  0.00000000D+00  0.72571327D-01  0.00000000D+00  0.00000000D+00  0.81998976D-01
  0.00000000D+00  0.00000000D+00  0.24304665D+00  0.00000000D+00  0.00000000D+00
  0.54045636D-01  0.00000000D+00  0.00000000D+00 -0.78585587D-04  0.00000000D+00
  0.00000000D+00  0.00000000D+00  0.00000000D+00  0.00000000D+00  0.00000000D+00
  0.00000000D+00  0.00000000D+00  0.00000000D+00  0.00000000D+00  0.00000000D+00
  0.00000000D+00  0.00000000D+00  0.00000000D+00  0.00000000D+00  0.00000000D+00
  0.00000000D+00  0.00000000D+00  0.00000000D+00  0.00000000D+00  0.00000000D+00
  0.00000000D+00  0.00000000D+00  0.00000000D+00  0.00000000D+00  0.00000000D+00
  0.00000000D+00  0.00000000D+00  0.00000000D+00  0.00000000D+00  0.00000000D+00
  0.00000000D+00  0.00000000D+00  0.00000000D+00  0.00000000D+00  0.00000000D+00
  0.00000000D+00  0.00000000D+00  0.00000000D+00  0.00000000D+00  0.00000000D+00
  0.00000000D+00  0.00000000D+00  0.00000000D+00  0.00000000D+00  0.00000000D+00
  0.00000000D+00  0.00000000D+00  0.00000000D+00  0.00000000D+00  0.18226949D-12
  0.00000000D+00  0.00000000D+00 -0.38979317D-12  0.00000000D+00  0.00000000D+00
 -0.15701531D-12  0.00000000D+00  0.00000000D+00  0.00000000D+00 -0.19331701D-12
  0.00000000D+00  0.00000000D+00  0.27383793D-12  0.00000000D+00  0.00000000D+00
  0.30611311D-12  0.00000000D+00  0.00000000D+00  0.00000000D+00  0.48935984D-13
  0.00000000D+00  0.00000000D+00 -0.75722890D-13  0.00000000D+00  0.00000000D+00
 -0.71085062D-13  0.00000000D+00  0.00000000D+00  0.00000000D+00  0.26136495D-12
  0.00000000D+00  0.00000000D+00 -0.27701485D-12  0.00000000D+00  0.00000000D+00
 -0.50708001D-12  0.00000000D+00  0.00000000D+00  0.00000000D+00 -0.13009814D-11
  0.00000000D+00  0.00000000D+00  0.30757981D-11  0.00000000D+00  0.00000000D+00
  0.82714601D-12  0.00000000D+00  0.00000000D+00  0.00000000D+00 -0.73080150D-15
  0.00000000D+00  0.00000000D+00  0.11449771D-14  0.00000000D+00  0.00000000D+00
  0.10474274D-14  0.00000000D+00  0.00000000D+00  0.00000000D+00  0.00000000D+00
  0.00000000D+00  0.00000000D+00  0.00000000D+00  0.00000000D+00  0.00000000D+00
  0.00000000D+00  0.00000000D+00  0.00000000D+00  0.00000000D+00  0.00000000D+00
  0.00000000D+00  0.00000000D+00  0.00000000D+00  0.00000000D+00  0.00000000D+00
  0.00000000D+00  0.00000000D+00  0.00000000D+00  0.00000000D+00  0.00000000D+00
  0.00000000D+00  0.00000000D+00  0.00000000D+00  0.00000000D+00  0.00000000D+00
  0.00000000D+00  0.00000000D+00  0.00000000D+00  0.00000000D+00  0.00000000D+00
  0.00000000D+00  0.00000000D+00  0.00000000D+00  0.00000000D+00  0.00000000D+00
  0.00000000D+00  0.00000000D+00  0.00000000D+00  0.00000000D+00  0.00000000D+00
  0.00000000D+00  0.00000000D+00  0.00000000D+00  0.00000000D+00  0.00000000D+00
  0.00000000D+00  0.00000000D+00  0.00000000D+00  0.00000000D+00  0.00000000D+00
  0.00000000D+00  0.00000000D+00  0.00000000D+00  0.00000000D+00  0.00000000D+00
  0.00000000D+00  0.00000000D+00 -0.16035762D-12  0.00000000D+00  0.82476682D-12
  0.00000000D+00 -0.76649259D-12  0.00000000D+00  0.00000000D+00  0.00000000D+00
  0.00000000D+00  0.00000000D+00  0.00000000D+00  0.77880942D-12  0.00000000D+00
  0.21246551D-11  0.00000000D+00  0.00000000D+00  0.00000000D+00  0.00000000D+00
 -0.74351389D-12  0.00000000D+00  0.00000000D+00  0.43028198D-13  0.00000000D+00
 -0.21668554D-12  0.00000000D+00  0.15083221D-12  0.00000000D+00  0.00000000D+00
  0.00000000D+00  0.00000000D+00  0.00000000D+00  0.00000000D+00 -0.21359643D-12
  0.00000000D+00 -0.25493663D-12  0.00000000D+00  0.00000000D+00  0.00000000D+00
  0.00000000D+00  0.14928766D-12  0.00000000D+00  0.00000000D+00
MO    4     MO 0.0        OCC NO =    0.0403748  ORB. ENERGY =    0.000000
  0.00000000D+00  0.00000000D+00  0.00000000D+00  0.00000000D+00  0.00000000D+00
  0.00000000D+00  0.00000000D+00  0.00000000D+00  0.00000000D+00  0.00000000D+00
  0.00000000D+00  0.00000000D+00  0.00000000D+00  0.00000000D+00  0.00000000D+00
  0.00000000D+00  0.00000000D+00  0.00000000D+00  0.00000000D+00  0.00000000D+00
  0.00000000D+00  0.00000000D+00  0.00000000D+00  0.00000000D+00  0.00000000D+00
  0.24528793D+01  0.32636057D+01  0.36912003D+01  0.33994793D+01  0.00000000D+00
  0.00000000D+00  0.00000000D+00  0.00000000D+00  0.00000000D+00  0.00000000D+00
  0.00000000D+00  0.00000000D+00  0.31301260D+01  0.00000000D+00  0.00000000D+00
  0.80849153D+00  0.00000000D+00  0.00000000D+00  0.64622165D-02  0.00000000D+00
  0.00000000D+00  0.91350143D-03  0.00000000D+00  0.00000000D+00  0.72571327D-01
  0.00000000D+00  0.00000000D+00  0.81998976D-01  0.00000000D+00  0.00000000D+00
  0.24304665D+00  0.00000000D+00  0.00000000D+00  0.54045636D-01  0.00000000D+00
  0.00000000D+00 -0.78585587D-04  0.00000000D+00  0.00000000D+00  0.00000000D+00
  0.00000000D+00  0.00000000D+00  0.00000000D+00  0.00000000D+00  0.00000000D+00
  0.00000000D+00  0.00000000D+00  0.00000000D+00  0.00000000D+00  0.00000000D+00
  0.00000000D+00  0.00000000D+00  0.00000000D+00  0.00000000D+00  0.00000000D+00
  0.00000000D+00  0.00000000D+00  0.00000000D+00  0.00000000D+00  0.00000000D+00
  0.00000000D+00  0.00000000D+00  0.00000000D+00  0.00000000D+00  0.00000000D+00
  0.00000000D+00  0.00000000D+00  0.00000000D+00  0.00000000D+00  0.00000000D+00
  0.00000000D+00  0.00000000D+00  0.00000000D+00  0.00000000D+00  0.00000000D+00
  0.00000000D+00  0.00000000D+00  0.00000000D+00  0.00000000D+00  0.00000000D+00
  0.00000000D+00  0.00000000D+00  0.00000000D+00  0.00000000D+00  0.00000000D+00
  0.00000000D+00  0.00000000D+00  0.29050686D-12  0.00000000D+00  0.00000000D+00
 -0.38055195D-12  0.00000000D+00  0.00000000D+00 -0.49096864D-12  0.00000000D+00
  0.00000000D+00  0.00000000D+00 -0.17960521D-12  0.00000000D+00  0.00000000D+00
  0.30478775D-12  0.00000000D+00  0.00000000D+00  0.23402787D-12  0.00000000D+00
  0.00000000D+00  0.00000000D+00  0.58156186D-13  0.00000000D+00  0.00000000D+00
 -0.87339493D-13  0.00000000D+00  0.00000000D+00 -0.87129065D-13  0.00000000D+00
  0.00000000D+00  0.00000000D+00  0.46096223D-12  0.00000000D+00  0.00000000D+00
  0.56695909D-13  0.00000000D+00  0.00000000D+00 -0.14395826D-11  0.00000000D+00
  0.00000000D+00  0.00000000D+00 -0.73455595D-12  0.00000000D+00  0.00000000D+00
 -0.79306278D-12  0.00000000D+00  0.00000000D+00  0.29967306D-11  0.00000000D+00
  0.00000000D+00  0.00000000D+00 -0.11574664D-14  0.00000000D+00  0.00000000D+00
  0.17636894D-14  0.00000000D+00  0.00000000D+00  0.17087099D-14  0.00000000D+00
  0.00000000D+00  0.00000000D+00  0.00000000D+00  0.00000000D+00  0.00000000D+00
  0.00000000D+00  0.00000000D+00  0.00000000D+00  0.00000000D+00  0.00000000D+00
  0.00000000D+00  0.00000000D+00  0.00000000D+00  0.00000000D+00  0.00000000D+00
  0.00000000D+00  0.00000000D+00  0.00000000D+00  0.00000000D+00  0.00000000D+00
  0.00000000D+00  0.00000000D+00  0.00000000D+00  0.00000000D+00  0.00000000D+00
  0.00000000D+00  0.00000000D+00  0.00000000D+00  0.00000000D+00  0.00000000D+00
  0.00000000D+00  0.00000000D+00  0.00000000D+00  0.00000000D+00  0.00000000D+00
  0.00000000D+00  0.00000000D+00  0.00000000D+00  0.00000000D+00  0.00000000D+00
  0.00000000D+00  0.00000000D+00  0.00000000D+00  0.00000000D+00  0.00000000D+00
  0.00000000D+00  0.00000000D+00  0.00000000D+00  0.00000000D+00  0.00000000D+00
  0.00000000D+00  0.00000000D+00  0.00000000D+00  0.00000000D+00  0.00000000D+00
  0.00000000D+00  0.00000000D+00  0.00000000D+00  0.00000000D+00  0.00000000D+00
  0.00000000D+00  0.00000000D+00  0.00000000D+00  0.00000000D+00  0.00000000D+00
  0.00000000D+00  0.00000000D+00  0.00000000D+00 -0.75426735D-12  0.00000000D+00
  0.21283913D-11  0.00000000D+00 -0.75816048D-12  0.00000000D+00  0.00000000D+00
  0.00000000D+00  0.00000000D+00  0.79907094D-12  0.00000000D+00  0.80685719D-12
  0.00000000D+00  0.00000000D+00 -0.16059281D-12  0.00000000D+00  0.00000000D+00
  0.00000000D+00  0.00000000D+00  0.00000000D+00  0.00000000D+00  0.14773727D-12
  0.00000000D+00 -0.25542008D-12  0.00000000D+00  0.15162489D-12  0.00000000D+00
  0.00000000D+00  0.00000000D+00  0.00000000D+00 -0.21033451D-12  0.00000000D+00
 -0.21810975D-12  0.00000000D+00  0.00000000D+00  0.42844426D-13
MO    5     MO 0.0        OCC NO =    0.0403748  ORB. ENERGY =    0.000000
  0.00000000D+00  0.00000000D+00  0.00000000D+00  0.00000000D+00  0.00000000D+00
  0.00000000D+00  0.00000000D+00  0.00000000D+00  0.00000000D+00  0.00000000D+00
  0.00000000D+00  0.00000000D+00  0.00000000D+00  0.00000000D+00  0.00000000D+00
  0.00000000D+00  0.00000000D+00  0.00000000D+00  0.00000000D+00  0.00000000D+00
  0.00000000D+00  0.00000000D+00  0.00000000D+00  0.00000000D+00  0.00000000D+00
  0.00000000D+00  0.00000000D+00  0.00000000D+00  0.00000000D+00  0.24528793D+01
  0.32636057D+01  0.36912003D+01  0.33994793D+01  0.00000000D+00  0.00000000D+00
  0.00000000D+00  0.00000000D+00  0.00000000D+00  0.31301260D+01  0.00000000D+00
  0.00000000D+00  0.80849153D+00  0.00000000D+00  0.00000000D+00  0.64622165D-02
  0.00000000D+00  0.00000000D+00  0.91350143D-03  0.00000000D+00  0.00000000D+00
  0.72571327D-01  0.00000000D+00  0.00000000D+00  0.81998976D-01  0.00000000D+00
  0.00000000D+00  0.24304665D+00  0.00000000D+00  0.00000000D+00  0.54045636D-01
  0.00000000D+00  0.00000000D+00 -0.78585587D-04  0.00000000D+00  0.00000000D+00
  0.00000000D+00  0.00000000D+00  0.00000000D+00  0.00000000D+00  0.00000000D+00
  0.00000000D+00  0.00000000D+00  0.00000000D+00  0.00000000D+00  0.00000000D+00
  0.00000000D+00  0.00000000D+00  0.00000000D+00  0.00000000D+00  0.00000000D+00
  0.00000000D+00  0.00000000D+00  0.00000000D+00  0.00000000D+00  0.00000000D+00
  0.00000000D+00  0.00000000D+00  0.00000000D+00  0.00000000D+00  0.00000000D+00
  0.00000000D+00  0.00000000D+00  0.00000000D+00  0.00000000D+00  0.00000000D+00
  0.00000000D+00  0.00000000D+00  0.00000000D+00  0.00000000D+00  0.00000000D+00
  0.00000000D+00  0.00000000D+00  0.00000000D+00  0.00000000D+00  0.00000000D+00
  0.00000000D+00  0.00000000D+00  0.00000000D+00  0.00000000D+00  0.00000000D+00
  0.00000000D+00  0.00000000D+00  0.00000000D+00  0.40348705D-12  0.00000000D+00
  0.00000000D+00 -0.54328569D-12  0.00000000D+00  0.00000000D+00 -0.66717547D-12
  0.00000000D+00  0.00000000D+00  0.00000000D+00 -0.15831770D-12  0.00000000D+00
  0.00000000D+00  0.24880297D-12  0.00000000D+00  0.00000000D+00  0.22615014D-12
  0.00000000D+00  0.00000000D+00  0.00000000D+00  0.52089579D-13  0.00000000D+00
  0.00000000D+00 -0.74247448D-13  0.00000000D+00  0.00000000D+00 -0.82021290D-13
  0.00000000D+00  0.00000000D+00  0.00000000D+00  0.66433964D-13  0.00000000D+00
  0.00000000D+00 -0.63098100D-13  0.00000000D+00  0.00000000D+00 -0.13620379D-12
  0.00000000D+00  0.00000000D+00  0.00000000D+00 -0.78915533D-13  0.00000000D+00
  0.00000000D+00  0.58307025D-12  0.00000000D+00  0.00000000D+00 -0.34632365D-12
  0.00000000D+00  0.00000000D+00  0.00000000D+00 -0.73572727D-15  0.00000000D+00
  0.00000000D+00  0.88906425D-15  0.00000000D+00  0.00000000D+00  0.13181175D-14
  0.00000000D+00  0.00000000D+00  0.00000000D+00  0.00000000D+00  0.00000000D+00
  0.00000000D+00  0.00000000D+00  0.00000000D+00  0.00000000D+00  0.00000000D+00
  0.00000000D+00  0.00000000D+00  0.00000000D+00  0.00000000D+00  0.00000000D+00
  0.00000000D+00  0.00000000D+00  0.00000000D+00  0.00000000D+00  0.00000000D+00
  0.00000000D+00  0.00000000D+00  0.00000000D+00  0.00000000D+00  0.00000000D+00
  0.00000000D+00  0.00000000D+00  0.00000000D+00  0.00000000D+00  0.00000000D+00
  0.00000000D+00  0.00000000D+00  0.00000000D+00  0.00000000D+00  0.00000000D+00
  0.00000000D+00  0.00000000D+00  0.00000000D+00  0.00000000D+00  0.00000000D+00
  0.00000000D+00  0.00000000D+00  0.00000000D+00  0.00000000D+00  0.00000000D+00
  0.00000000D+00  0.00000000D+00  0.00000000D+00  0.00000000D+00  0.00000000D+00
  0.00000000D+00  0.00000000D+00  0.00000000D+00  0.00000000D+00  0.00000000D+00
  0.00000000D+00  0.00000000D+00  0.00000000D+00  0.00000000D+00  0.00000000D+00
  0.00000000D+00  0.00000000D+00  0.00000000D+00 -0.80594275D-12  0.00000000D+00
  0.87876726D-12  0.00000000D+00 -0.17105477D-12  0.00000000D+00  0.00000000D+00
  0.00000000D+00  0.00000000D+00  0.00000000D+00  0.00000000D+00  0.21993547D-11
  0.00000000D+00  0.83178047D-12  0.00000000D+00  0.00000000D+00  0.00000000D+00
  0.00000000D+00 -0.78244936D-12  0.00000000D+00  0.00000000D+00  0.14514722D-12
  0.00000000D+00 -0.20897342D-12  0.00000000D+00  0.42479251D-13  0.00000000D+00
  0.00000000D+00  0.00000000D+00  0.00000000D+00  0.00000000D+00  0.00000000D+00
 -0.24396308D-12  0.00000000D+00 -0.21581910D-12  0.00000000D+00  0.00000000D+00
  0.00000000D+00  0.00000000D+00  0.14857006D-12  0.00000000D+00
MO    6     MO 0.0        OCC NO =    0.0002847  ORB. ENERGY =    0.000000
  0.25786555D+00  0.47108267D+00  0.81425204D+00  0.13224741D+01  0.20256549D+01
  0.28394320D+01  0.35164816D+01  0.33991620D+01  0.19826285D+01 -0.22504591D-03
 -0.98088562D-03 -0.55294700D-02 -0.16629255D-01 -0.46409332D-01 -0.88928238D-01
 -0.10160024D+00 -0.26867572D+01  0.27282633D+00  0.45570133D+00 -0.23168485D-01
 -0.22362670D+01  0.16547699D+01  0.28284795D+01  0.17468713D+01  0.25326346D-02
  0.00000000D+00  0.00000000D+00  0.00000000D+00  0.00000000D+00  0.00000000D+00