 Title Card Required
GAUSSIAN            181 MOL ORBITALS    274 PRIMITIVES        1 NUCLEI
  Ne   1    (CENTRE  1)   0.00000000  0.00000000  0.00000000  CHARGE = 10.0
CENTRE ASSIGNMENTS    1  1  1  1  1  1  1  1  1  1  1  1  1  1  1  1  1  1  1  1
CENTRE ASSIGNMENTS    1  1  1  1  1  1  1  1  1  1  1  1  1  1  1  1  1  1  1  1
CENTRE ASSIGNMENTS    1  1  1  1  1  1  1  1  1  1  1  1  1  1  1  1  1  1  1  1
CENTRE ASSIGNMENTS    1  1  1  1  1  1  1  1  1  1  1  1  1  1  1  1  1  1  1  1
CENTRE ASSIGNMENTS    1  1  1  1  1  1  1  1  1  1  1  1  1  1  1  1  1  1  1  1
CENTRE ASSIGNMENTS    1  1  1  1  1  1  1  1  1  1  1  1  1  1  1  1  1  1  1  1
CENTRE ASSIGNMENTS    1  1  1  1  1  1  1  1  1  1  1  1  1  1  1  1  1  1  1  1
CENTRE ASSIGNMENTS    1  1  1  1  1  1  1  1  1  1  1  1  1  1  1  1  1  1  1  1
CENTRE ASSIGNMENTS    1  1  1  1  1  1  1  1  1  1  1  1  1  1  1  1  1  1  1  1
CENTRE ASSIGNMENTS    1  1  1  1  1  1  1  1  1  1  1  1  1  1  1  1  1  1  1  1
CENTRE ASSIGNMENTS    1  1  1  1  1  1  1  1  1  1  1  1  1  1  1  1  1  1  1  1
CENTRE ASSIGNMENTS    1  1  1  1  1  1  1  1  1  1  1  1  1  1  1  1  1  1  1  1
CENTRE ASSIGNMENTS    1  1  1  1  1  1  1  1  1  1  1  1  1  1  1  1  1  1  1  1
CENTRE ASSIGNMENTS    1  1  1  1  1  1  1  1  1  1  1  1  1  1
TYPE ASSIGNMENTS      1  1  1  1  1  1  1  1  1  1  1  1  1  1  1  1  1  1  1  1
TYPE ASSIGNMENTS      1  1  1  1  1  2  2  2  2  3  3  3  3  4  4  4  4  2  3  4
TYPE ASSIGNMENTS      2  3  4  2  3  4  2  3  4  2  3  4  2  3  4  2  3  4  2  3
TYPE ASSIGNMENTS      4  2  3  4  5  6  7  8  9 10  5  6  7  8  9 10  5  6  7  8
TYPE ASSIGNMENTS      9 10  5  6  7  8  9 10  5  6  7  8  9 10  5  6  7  8  9 10
TYPE ASSIGNMENTS      5  6  7  8  9 10  5  6  7  8  9 10 11 12 13 17 14 15 18 19
TYPE ASSIGNMENTS     16 20 11 12 13 17 14 15 18 19 16 20 11 12 13 17 14 15 18 19
TYPE ASSIGNMENTS     16 20 11 12 13 17 14 15 18 19 16 20 11 12 13 17 14 15 18 19
TYPE ASSIGNMENTS     16 20 11 12 13 17 14 15 18 19 16 20 23 29 32 27 22 28 35 34
TYPE ASSIGNMENTS     26 31 33 30 25 24 21 23 29 32 27 22 28 35 34 26 31 33 30 25
TYPE ASSIGNMENTS     24 21 23 29 32 27 22 28 35 34 26 31 33 30 25 24 21 23 29 32
TYPE ASSIGNMENTS     27 22 28 35 34 26 31 33 30 25 24 21 36 37 38 39 40 41 42 43
TYPE ASSIGNMENTS     44 45 46 47 48 49 50 51 52 53 54 55 56 36 37 38 39 40 41 42
TYPE ASSIGNMENTS     43 44 45 46 47 48 49 50 51 52 53 54 55 56
EXPONENTS  0.2627000D+06 0.3935000D+05 0.8955000D+04 0.2538000D+04 0.8299000D+03
EXPONENTS  0.3015000D+03 0.1190000D+03 0.5000000D+02 0.2198000D+02 0.2538000D+04
EXPONENTS  0.8299000D+03 0.3015000D+03 0.1190000D+03 0.5000000D+02 0.2198000D+02
EXPONENTS  0.9891000D+01 0.4327000D+01 0.1804000D+01 0.7288000D+00 0.2867000D+00
EXPONENTS  0.1985600D+02 0.4254100D+02 0.9113900D+02 0.1952560D+03 0.9570000D-01
EXPONENTS  0.2991000D+03 0.7073000D+02 0.2248000D+02 0.8246000D+01 0.2991000D+03
EXPONENTS  0.7073000D+02 0.2248000D+02 0.8246000D+01 0.2991000D+03 0.7073000D+02
EXPONENTS  0.2248000D+02 0.8246000D+01 0.3269000D+01 0.3269000D+01 0.3269000D+01
EXPONENTS  0.1315000D+01 0.1315000D+01 0.1315000D+01 0.5158000D+00 0.5158000D+00
EXPONENTS  0.5158000D+00 0.1918000D+00 0.1918000D+00 0.1918000D+00 0.1809300D+02
EXPONENTS  0.1809300D+02 0.1809300D+02 0.4346900D+02 0.4346900D+02 0.4346900D+02
EXPONENTS  0.1044380D+03 0.1044380D+03 0.1044380D+03 0.2509190D+03 0.2509190D+03
EXPONENTS  0.2509190D+03 0.6540000D-01 0.6540000D-01 0.6540000D-01 0.9837000D+01
EXPONENTS  0.9837000D+01 0.9837000D+01 0.9837000D+01 0.9837000D+01 0.9837000D+01
EXPONENTS  0.3844000D+01 0.3844000D+01 0.3844000D+01 0.3844000D+01 0.3844000D+01
EXPONENTS  0.3844000D+01 0.1502000D+01 0.1502000D+01 0.1502000D+01 0.1502000D+01
EXPONENTS  0.1502000D+01 0.1502000D+01 0.5870000D+00 0.5870000D+00 0.5870000D+00
EXPONENTS  0.5870000D+00 0.5870000D+00 0.5870000D+00 0.2311500D+02 0.2311500D+02
EXPONENTS  0.2311500D+02 0.2311500D+02 0.2311500D+02 0.2311500D+02 0.5898300D+02
EXPONENTS  0.5898300D+02 0.5898300D+02 0.5898300D+02 0.5898300D+02 0.5898300D+02
EXPONENTS  0.1505080D+03 0.1505080D+03 0.1505080D+03 0.1505080D+03 0.1505080D+03
EXPONENTS  0.1505080D+03 0.2130000D+00 0.2130000D+00 0.2130000D+00 0.2130000D+00
EXPONENTS  0.2130000D+00 0.2130000D+00 0.7090000D+01 0.7090000D+01 0.7090000D+01
EXPONENTS  0.7090000D+01 0.7090000D+01 0.7090000D+01 0.7090000D+01 0.7090000D+01
EXPONENTS  0.7090000D+01 0.7090000D+01 0.2738000D+01 0.2738000D+01 0.2738000D+01
EXPONENTS  0.2738000D+01 0.2738000D+01 0.2738000D+01 0.2738000D+01 0.2738000D+01
EXPONENTS  0.2738000D+01 0.2738000D+01 0.1057000D+01 0.1057000D+01 0.1057000D+01
EXPONENTS  0.1057000D+01 0.1057000D+01 0.1057000D+01 0.1057000D+01 0.1057000D+01
EXPONENTS  0.1057000D+01 0.1057000D+01 0.2146000D+02 0.2146000D+02 0.2146000D+02
EXPONENTS  0.2146000D+02 0.2146000D+02 0.2146000D+02 0.2146000D+02 0.2146000D+02
EXPONENTS  0.2146000D+02 0.2146000D+02 0.6236800D+02 0.6236800D+02 0.6236800D+02
EXPONENTS  0.6236800D+02 0.6236800D+02 0.6236800D+02 0.6236800D+02 0.6236800D+02
EXPONENTS  0.6236800D+02 0.6236800D+02 0.4250000D+00 0.4250000D+00 0.4250000D+00
EXPONENTS  0.4250000D+00 0.4250000D+00 0.4250000D+00 0.4250000D+00 0.4250000D+00
EXPONENTS  0.4250000D+00 0.4250000D+00 0.5460000D+01 0.5460000D+01 0.5460000D+01
EXPONENTS  0.5460000D+01 0.5460000D+01 0.5460000D+01 0.5460000D+01 0.5460000D+01
EXPONENTS  0.5460000D+01 0.5460000D+01 0.5460000D+01 0.5460000D+01 0.5460000D+01
EXPONENTS  0.5460000D+01 0.5460000D+01 0.1880000D+01 0.1880000D+01 0.1880000D+01
EXPONENTS  0.1880000D+01 0.1880000D+01 0.1880000D+01 0.1880000D+01 0.1880000D+01
EXPONENTS  0.1880000D+01 0.1880000D+01 0.1880000D+01 0.1880000D+01 0.1880000D+01
EXPONENTS  0.1880000D+01 0.1880000D+01 0.2497300D+02 0.2497300D+02 0.2497300D+02
EXPONENTS  0.2497300D+02 0.2497300D+02 0.2497300D+02 0.2497300D+02 0.2497300D+02
EXPONENTS  0.2497300D+02 0.2497300D+02 0.2497300D+02 0.2497300D+02 0.2497300D+02
EXPONENTS  0.2497300D+02 0.2497300D+02 0.8090000D+00 0.8090000D+00 0.8090000D+00
EXPONENTS  0.8090000D+00 0.8090000D+00 0.8090000D+00 0.8090000D+00 0.8090000D+00
EXPONENTS  0.8090000D+00 0.8090000D+00 0.8090000D+00 0.8090000D+00 0.8090000D+00
EXPONENTS  0.8090000D+00 0.8090000D+00 0.3776000D+01 0.3776000D+01 0.3776000D+01
EXPONENTS  0.3776000D+01 0.3776000D+01 0.3776000D+01 0.3776000D+01 0.3776000D+01
EXPONENTS  0.3776000D+01 0.3776000D+01 0.3776000D+01 0.3776000D+01 0.3776000D+01
EXPONENTS  0.3776000D+01 0.3776000D+01 0.3776000D+01 0.3776000D+01 0.3776000D+01
EXPONENTS  0.3776000D+01 0.3776000D+01 0.3776000D+01 0.1628000D+01 0.1628000D+01
EXPONENTS  0.1628000D+01 0.1628000D+01 0.1628000D+01 0.1628000D+01 0.1628000D+01
EXPONENTS  0.1628000D+01 0.1628000D+01 0.1628000D+01 0.1628000D+01 0.1628000D+01
EXPONENTS  0.1628000D+01 0.1628000D+01 0.1628000D+01 0.1628000D+01 0.1628000D+01
EXPONENTS  0.1628000D+01 0.1628000D+01 0.1628000D+01 0.1628000D+01
MO    1     MO 0.0        OCC NO =    1.9992174  ORB. ENERGY =    0.000000
  0.21786864D+00  0.39801416D+00  0.68795535D+00  0.11173483D+01  0.17114604D+01
  0.23990145D+01  0.29710485D+01  0.28719261D+01  0.16751077D+01  0.24542789D-02
  0.10697225D-01  0.60302635D-01  0.18135334D+00  0.50612536D+00  0.96982297D+00
  0.11080198D+01  0.13359719D+00  0.30816600D-02  0.22942044D-02  0.23056887D-03
 -0.42786778D-03 -0.17429264D-02  0.86997969D-03 -0.20770469D-03  0.10930832D-04
  0.00000000D+00  0.00000000D+00  0.00000000D+00  0.00000000D+00  0.00000000D+00
  0.00000000D+00  0.00000000D+00  0.00000000D+00  0.00000000D+00  0.00000000D+00
  0.00000000D+00  0.00000000D+00  0.00000000D+00  0.00000000D+00  0.00000000D+00
  0.00000000D+00  0.00000000D+00  0.00000000D+00  0.00000000D+00  0.00000000D+00
  0.00000000D+00  0.00000000D+00  0.00000000D+00  0.00000000D+00  0.00000000D+00
  0.00000000D+00  0.00000000D+00  0.00000000D+00  0.00000000D+00  0.00000000D+00
  0.00000000D+00  0.00000000D+00  0.00000000D+00  0.00000000D+00  0.00000000D+00
  0.00000000D+00  0.00000000D+00  0.00000000D+00  0.00000000D+00 -0.23758060D-13
  0.44158795D-13 -0.20400735D-13 -0.70721993D-29 -0.20124400D-29 -0.43490490D-14
  0.40720362D-14 -0.83812295D-14  0.43091933D-14  0.80615165D-30  0.19805214D-30
  0.15736240D-14 -0.54130976D-15  0.14008224D-14 -0.85951262D-15  0.18234033D-29
  0.54779868D-30 -0.30518206D-15  0.88139365D-16 -0.13420658D-15  0.46067219D-16
 -0.33987794D-30 -0.10190347D-30  0.16989617D-16  0.59980011D-13 -0.15650847D-12
  0.96528460D-13  0.73525329D-28  0.21271717D-28 -0.60875518D-14 -0.10971416D-12
  0.45247254D-12 -0.34275838D-12 -0.38385495D-27 -0.11077244D-27  0.26970583D-12
 -0.21200581D-12 -0.12268463D-11  0.14388521D-11  0.13408356D-27  0.37549929D-28
 -0.68003123D-12  0.28318057D-18  0.12609555D-16 -0.12892736D-16  0.19991581D-31
  0.59823125D-32 -0.72955005D-17  0.00000000D+00  0.00000000D+00  0.00000000D+00
  0.00000000D+00  0.00000000D+00  0.00000000D+00  0.00000000D+00  0.00000000D+00
  0.00000000D+00  0.00000000D+00  0.00000000D+00  0.00000000D+00  0.00000000D+00
  0.00000000D+00  0.00000000D+00  0.00000000D+00  0.00000000D+00  0.00000000D+00
  0.00000000D+00  0.00000000D+00  0.00000000D+00  0.00000000D+00  0.00000000D+00
  0.00000000D+00  0.00000000D+00  0.00000000D+00  0.00000000D+00  0.00000000D+00
  0.00000000D+00  0.00000000D+00  0.00000000D+00  0.00000000D+00  0.00000000D+00
  0.00000000D+00  0.00000000D+00  0.00000000D+00  0.00000000D+00  0.00000000D+00
  0.00000000D+00  0.00000000D+00  0.00000000D+00  0.00000000D+00  0.00000000D+00
  0.00000000D+00  0.00000000D+00  0.00000000D+00  0.00000000D+00  0.00000000D+00
  0.00000000D+00  0.00000000D+00  0.00000000D+00  0.00000000D+00  0.00000000D+00
  0.00000000D+00  0.00000000D+00  0.00000000D+00  0.00000000D+00  0.00000000D+00
  0.00000000D+00  0.00000000D+00  0.80614366D-12  0.11058517D-13 -0.24194071D-11
  0.38855041D-13  0.80552333D-12  0.56414847D-28 -0.14518111D-30 -0.62119834D-31
 -0.33219233D-27 -0.24174548D-11 -0.14974067D-12 -0.24137328D-11 -0.56394140D-28
  0.33224072D-27  0.80519794D-12 -0.24011060D-13 -0.24610044D-15  0.71947293D-13
  0.82957073D-15 -0.24581715D-13 -0.16888605D-29 -0.20585193D-31 -0.88031409D-32
  0.98403860D-29  0.72119070D-13 -0.17504109D-14  0.75542996D-13  0.16917948D-29
 -0.98335243D-29 -0.24610344D-13 -0.12208371D-11 -0.48584308D-12  0.36981346D-11
 -0.25977133D-11 -0.13148950D-11 -0.87251550D-28 -0.40462761D-30 -0.36190510D-30
  0.50073874D-27  0.36268879D-11  0.92506692D-11  0.41912354D-11  0.87372185D-28
 -0.50060387D-27 -0.13030205D-11  0.10488114D-14 -0.10631150D-16 -0.31638617D-14
 -0.22084070D-15  0.10679360D-14  0.69423306D-31 -0.37423872D-33 -0.10651891D-33
 -0.40665950D-30 -0.31290066D-14  0.69441554D-15 -0.32437543D-14 -0.69387799D-31
  0.40678424D-30  0.10621268D-14  0.00000000D+00  0.00000000D+00  0.00000000D+00
  0.00000000D+00  0.00000000D+00  0.00000000D+00  0.00000000D+00  0.00000000D+00
  0.00000000D+00  0.00000000D+00  0.00000000D+00  0.00000000D+00  0.00000000D+00
  0.00000000D+00  0.00000000D+00  0.00000000D+00  0.00000000D+00  0.00000000D+00
  0.00000000D+00  0.00000000D+00  0.00000000D+00  0.00000000D+00  0.00000000D+00
  0.00000000D+00  0.00000000D+00  0.00000000D+00  0.00000000D+00  0.00000000D+00
  0.00000000D+00  0.00000000D+00  0.00000000D+00  0.00000000D+00  0.00000000D+00
  0.00000000D+00  0.00000000D+00  0.00000000D+00  0.00000000D+00  0.00000000D+00
  0.00000000D+00  0.00000000D+00  0.00000000D+00  0.00000000D+00
MO    2     MO 0.0        OCC NO =    1.9893549  ORB. ENERGY =    0.000000
 -0.52544064D-01 -0.95990327D-01 -0.16591636D+00 -0.26947440D+00 -0.41275829D+00
 -0.57857787D+00 -0.71653711D+00 -0.69263144D+00 -0.40399100D+00 -0.13564532D-02
 -0.59122400D-02 -0.33328610D-01 -0.10023202D+00 -0.27972997D+00 -0.53601059D+00
 -0.61239048D+00  0.59070357D-01  0.44327697D+00  0.29254720D+00  0.54343014D-01
  0.66331844D-02 -0.17828645D-02  0.27805051D-02 -0.14657810D-02  0.32588388D-03
  0.00000000D+00  0.00000000D+00  0.00000000D+00  0.00000000D+00  0.00000000D+00
  0.00000000D+00  0.00000000D+00  0.00000000D+00  0.00000000D+00  0.00000000D+00
  0.00000000D+00  0.00000000D+00  0.00000000D+00  0.00000000D+00  0.00000000D+00
  0.00000000D+00  0.00000000D+00  0.00000000D+00  0.00000000D+00  0.00000000D+00
  0.00000000D+00  0.00000000D+00  0.00000000D+00  0.00000000D+00  0.00000000D+00
  0.00000000D+00  0.00000000D+00  0.00000000D+00  0.00000000D+00  0.00000000D+00
  0.00000000D+00  0.00000000D+00  0.00000000D+00  0.00000000D+00  0.00000000D+00
  0.00000000D+00  0.00000000D+00  0.00000000D+00  0.00000000D+00  0.10072880D-13
 -0.23129704D-13  0.13056824D-13  0.10540410D-29  0.34486763D-30  0.67281026D-13
 -0.19652109D-14  0.40549194D-14 -0.20897085D-14 -0.47884131D-31 -0.15434430D-31
 -0.41672911D-14  0.12517406D-15 -0.54994803D-15  0.42477397D-15 -0.24858095D-31
 -0.73845146D-32 -0.14248111D-14 -0.11354292D-16  0.54593478D-16 -0.43239186D-16
  0.89299410D-32  0.27082043D-32  0.37321719D-15 -0.31238838D-13  0.77352343D-13
 -0.46113505D-13 -0.60514246D-29 -0.20302174D-29 -0.23338574D-12 -0.51752931D-14
 -0.29466064D-12  0.29983593D-12  0.52440715D-29  0.18352549D-29  0.86363082D-13
 -0.63783434D-13  0.48613868D-12 -0.42235525D-12 -0.22566823D-28 -0.73791721D-29
  0.36703365D-11 -0.32858448D-17 -0.44595425D-17  0.77453874D-17 -0.93140847D-33
 -0.27845363D-33 -0.25160503D-16  0.00000000D+00  0.00000000D+00  0.00000000D+00
  0.00000000D+00  0.00000000D+00  0.00000000D+00  0.00000000D+00  0.00000000D+00
  0.00000000D+00  0.00000000D+00  0.00000000D+00  0.00000000D+00  0.00000000D+00
  0.00000000D+00  0.00000000D+00  0.00000000D+00  0.00000000D+00  0.00000000D+00
  0.00000000D+00  0.00000000D+00  0.00000000D+00  0.00000000D+00  0.00000000D+00
  0.00000000D+00  0.00000000D+00  0.00000000D+00  0.00000000D+00  0.00000000D+00
  0.00000000D+00  0.00000000D+00  0.00000000D+00  0.00000000D+00  0.00000000D+00
  0.00000000D+00  0.00000000D+00  0.00000000D+00  0.00000000D+00  0.00000000D+00
  0.00000000D+00  0.00000000D+00  0.00000000D+00  0.00000000D+00  0.00000000D+00
  0.00000000D+00  0.00000000D+00  0.00000000D+00  0.00000000D+00  0.00000000D+00
  0.00000000D+00  0.00000000D+00  0.00000000D+00  0.00000000D+00  0.00000000D+00
  0.00000000D+00  0.00000000D+00  0.00000000D+00  0.00000000D+00  0.00000000D+00
  0.00000000D+00  0.00000000D+00 -0.83834843D-14 -0.21685328D-13  0.29653037D-13
  0.43487595D-13 -0.10164571D-13 -0.71936788D-30 -0.33174355D-30 -0.12737188D-30
  0.36395614D-29  0.20647869D-13 -0.65406800D-13  0.31334390D-13  0.76182517D-30
 -0.35289802D-29 -0.86637098D-14 -0.72597961D-16  0.26747376D-14  0.53639433D-15
 -0.45321367D-14 -0.32713759D-16 -0.50667258D-32  0.18017165D-31  0.73994470D-32
  0.88275349D-31 -0.10080657D-15  0.55721973D-14 -0.34011178D-15  0.26002435D-32
 -0.94281071D-31  0.73486392D-16  0.17402338D-11 -0.42902862D-12 -0.52437166D-11
 -0.11966287D-11  0.16998956D-11  0.13894128D-27  0.93500752D-28  0.36365544D-28
 -0.62507778D-27 -0.51976862D-11  0.48769719D-11 -0.49556570D-11 -0.15106313D-27
  0.59391086D-27  0.16922239D-11 -0.45085899D-17 -0.21144996D-15  0.39891171D-16
  0.37004104D-15 -0.24260412D-16 -0.95959832D-33 -0.16243857D-33 -0.12554705D-33
  0.18732957D-32 -0.12839632D-16 -0.47577326D-15  0.10567130D-15  0.10014473D-32
 -0.18191495D-32 -0.15471945D-16  0.00000000D+00  0.00000000D+00  0.00000000D+00
  0.00000000D+00  0.00000000D+00  0.00000000D+00  0.00000000D+00  0.00000000D+00
  0.00000000D+00  0.00000000D+00  0.00000000D+00  0.00000000D+00  0.00000000D+00
  0.00000000D+00  0.00000000D+00  0.00000000D+00  0.00000000D+00  0.00000000D+00
  0.00000000D+00  0.00000000D+00  0.00000000D+00  0.00000000D+00  0.00000000D+00
  0.00000000D+00  0.00000000D+00  0.00000000D+00  0.00000000D+00  0.00000000D+00
  0.00000000D+00  0.00000000D+00  0.00000000D+00  0.00000000D+00  0.00000000D+00
  0.00000000D+00  0.00000000D+00  0.00000000D+00  0.00000000D+00  0.00000000D+00
  0.00000000D+00  0.00000000D+00  0.00000000D+00  0.00000000D+00
MO    3     MO 0.0        OCC NO =    1.9795436  ORB. ENERGY =    0.000000
  0.00000000D+00  0.00000000D+00  0.00000000D+00  0.00000000D+00  0.00000000D+00
  0.00000000D+00  0.00000000D+00  0.00000000D+00  0.00000000D+00  0.00000000D+00
  0.00000000D+00  0.00000000D+00  0.00000000D+00  0.00000000D+00  0.00000000D+00
  0.00000000D+00  0.00000000D+00  0.00000000D+00  0.00000000D+00  0.00000000D+00
  0.00000000D+00  0.00000000D+00  0.00000000D+00  0.00000000D+00  0.00000000D+00
  0.18582182D+01  0.24723971D+01  0.27963282D+01  0.25753302D+01 -0.15544334D-28
 -0.20682052D-28 -0.23391795D-28 -0.21543107D-28 -0.50141635D-29 -0.66714465D-29
 -0.75455331D-29 -0.69491985D-29  0.17094323D+01 -0.10929274D-28 -0.35140152D-29
  0.73503642D+00 -0.54388068D-29 -0.17724123D-29  0.20311898D+00 -0.13232606D-29
 -0.42680365D-30  0.23937909D-01 -0.17708972D-30 -0.57529229D-31  0.25723440D-02
  0.78672259D-29  0.24397588D-29 -0.76158009D-02 -0.35951010D-29 -0.10192183D-29
  0.71356788D-02  0.67824587D-29  0.20297852D-29 -0.95449288D-02 -0.16382118D-29
 -0.45163942D-30  0.19203010D-03 -0.60469978D-33 -0.20726643D-33  0.00000000D+00
  0.00000000D+00  0.00000000D+00  0.00000000D+00  0.00000000D+00  0.00000000D+00
  0.00000000D+00  0.00000000D+00  0.00000000D+00  0.00000000D+00  0.00000000D+00
  0.00000000D+00  0.00000000D+00  0.00000000D+00  0.00000000D+00  0.00000000D+00
  0.00000000D+00  0.00000000D+00  0.00000000D+00  0.00000000D+00  0.00000000D+00
  0.00000000D+00  0.00000000D+00  0.00000000D+00  0.00000000D+00  0.00000000D+00
  0.00000000D+00  0.00000000D+00  0.00000000D+00  0.00000000D+00  0.00000000D+00
  0.00000000D+00  0.00000000D+00  0.00000000D+00  0.00000000D+00  0.00000000D+00
  0.00000000D+00  0.00000000D+00  0.00000000D+00  0.00000000D+00  0.00000000D+00
  0.00000000D+00  0.00000000D+00  0.00000000D+00  0.00000000D+00  0.00000000D+00
  0.00000000D+00  0.00000000D+00 -0.31539513D-13  0.26457692D-29 -0.59867055D-30
  0.47817261D-13 -0.85538602D-29  0.20206947D-29  0.46801277D-13  0.61655244D-30
 -0.22468302D-30  0.14409690D-31  0.60216950D-14 -0.60841584D-30  0.10365688D-30
 -0.93375525D-14  0.18686669D-29 -0.32086639D-30 -0.87275324D-14 -0.43419363D-31
  0.98957366D-32  0.61917352D-31 -0.35867708D-15  0.38327206D-31 -0.75235154D-32
  0.54382290D-15 -0.11216948D-30  0.23756974D-31  0.53220835D-15 -0.28121354D-32
 -0.11864276D-32 -0.69059844D-33  0.16839108D-12 -0.67571524D-29  0.36853975D-29
 -0.21538094D-12  0.28225947D-28 -0.14684190D-28 -0.28979230D-12 -0.79544900D-29
  0.36279977D-29 -0.57695077D-29 -0.35228559D-11  0.39125205D-27 -0.68979713D-28
  0.60452923D-11 -0.11216686D-26  0.19854441D-27  0.45232754D-11 -0.52087544D-28
  0.83947308D-29  0.98888698D-29 -0.17918661D-16  0.16685439D-32 -0.86722857D-34
  0.32994972D-16 -0.61087638D-32  0.11888425D-33  0.20761012D-16  0.11031321D-32
  0.14128432D-33 -0.20425505D-34  0.00000000D+00  0.00000000D+00  0.00000000D+00
  0.00000000D+00  0.00000000D+00  0.00000000D+00  0.00000000D+00  0.00000000D+00
  0.00000000D+00  0.00000000D+00  0.00000000D+00  0.00000000D+00  0.00000000D+00
  0.00000000D+00  0.00000000D+00  0.00000000D+00  0.00000000D+00  0.00000000D+00
  0.00000000D+00  0.00000000D+00  0.00000000D+00  0.00000000D+00  0.00000000D+00
  0.00000000D+00  0.00000000D+00  0.00000000D+00  0.00000000D+00  0.00000000D+00
  0.00000000D+00  0.00000000D+00  0.00000000D+00  0.00000000D+00  0.00000000D+00
  0.00000000D+00  0.00000000D+00  0.00000000D+00  0.00000000D+00  0.00000000D+00
  0.00000000D+00  0.00000000D+00  0.00000000D+00  0.00000000D+00  0.00000000D+00
  0.00000000D+00  0.00000000D+00  0.00000000D+00  0.00000000D+00  0.00000000D+00
  0.00000000D+00  0.00000000D+00  0.00000000D+00  0.00000000D+00  0.00000000D+00
  0.00000000D+00  0.00000000D+00  0.00000000D+00  0.00000000D+00  0.00000000D+00
  0.00000000D+00  0.00000000D+00 -0.41567951D-31 -0.25844823D-31  0.13351499D-30
 -0.62046265D-30  0.33291633D-32  0.20818702D-30  0.55093151D-14 -0.51183959D-30
 -0.20671072D-13  0.40667971D-30  0.45392074D-14  0.28216452D-30  0.20164569D-29
 -0.42051995D-30 -0.14614075D-29 -0.41282728D-14  0.10515988D-30 -0.21880574D-14
 -0.70995600D-31  0.39462762D-30  0.63163302D-15  0.64533535D-32  0.63238763D-33
 -0.51445360D-31  0.28724617D-30  0.10945549D-32 -0.26752759D-31 -0.41854128D-15
  0.11907024D-30  0.51609110D-14 -0.10451194D-30 -0.53220547D-15 -0.13088175D-31
 -0.86553285D-30  0.14776875D-30 -0.19718583D-31 -0.88322108D-15 -0.14558298D-31
 -0.65589271D-15 -0.18084038D-31  0.15411477D-30  0.15391138D-15
MO    4     MO 0.0        OCC NO =    1.9795436  ORB. ENERGY =    0.000000
  0.00000000D+00  0.00000000D+00  0.00000000D+00  0.00000000D+00  0.00000000D+00
  0.00000000D+00  0.00000000D+00  0.00000000D+00  0.00000000D+00  0.00000000D+00
  0.00000000D+00  0.00000000D+00  0.00000000D+00  0.00000000D+00  0.00000000D+00
  0.00000000D+00  0.00000000D+00  0.00000000D+00  0.00000000D+00  0.00000000D+00
  0.00000000D+00  0.00000000D+00  0.00000000D+00  0.00000000D+00  0.00000000D+00
  0.29299107D-14  0.38983058D-14  0.44090581D-14  0.40606038D-14  0.18578379D+01
  0.24718911D+01  0.27957559D+01  0.25748032D+01 -0.37590648D-01 -0.50015122D-01
 -0.56568056D-01 -0.52097399D-01 -0.13870707D-14  0.17090825D+01 -0.34580799D-01
  0.58494086D-15  0.73488600D+00 -0.14869350D-01 -0.17954057D-15  0.20307742D+00
 -0.41089762D-02  0.33810496D-16  0.23933010D-01 -0.48424966D-03 -0.64758278D-14
  0.25718176D-02 -0.52036989D-04 -0.69995803D-14 -0.76142424D-02  0.15406312D-03
  0.46531396D-13  0.71342186D-02 -0.14435054D-03 -0.29017207D-12 -0.95429755D-02
  0.19308823D-03 -0.26432674D-17  0.19199080D-03 -0.38846547D-05  0.00000000D+00
  0.00000000D+00  0.00000000D+00  0.00000000D+00  0.00000000D+00  0.00000000D+00
  0.00000000D+00  0.00000000D+00  0.00000000D+00  0.00000000D+00  0.00000000D+00
  0.00000000D+00  0.00000000D+00  0.00000000D+00  0.00000000D+00  0.00000000D+00
  0.00000000D+00  0.00000000D+00  0.00000000D+00  0.00000000D+00  0.00000000D+00
  0.00000000D+00  0.00000000D+00  0.00000000D+00  0.00000000D+00  0.00000000D+00
  0.00000000D+00  0.00000000D+00  0.00000000D+00  0.00000000D+00  0.00000000D+00
  0.00000000D+00  0.00000000D+00  0.00000000D+00  0.00000000D+00  0.00000000D+00
  0.00000000D+00  0.00000000D+00  0.00000000D+00  0.00000000D+00  0.00000000D+00
  0.00000000D+00  0.00000000D+00  0.00000000D+00  0.00000000D+00  0.00000000D+00
  0.00000000D+00  0.00000000D+00 -0.72450279D-14 -0.30034737D-13  0.59273532D-15
  0.72467581D-14  0.47523193D-13 -0.91588761D-15  0.14488326D-13  0.42581017D-13
 -0.86231836D-15  0.20663566D-31 -0.34521408D-15  0.53910290D-14 -0.10631535D-15
  0.26849845D-15 -0.77991452D-14  0.16257270D-15  0.76714380D-15 -0.83739417D-14
  0.15637334D-15 -0.16371716D-31  0.17045809D-15 -0.34198746D-15  0.74820121D-17
 -0.21552603D-15  0.59226957D-15 -0.10914237D-16 -0.29584825D-15  0.43369281D-15
 -0.11531799D-16 -0.10584129D-32  0.13998720D-12  0.16601500D-12 -0.39986658D-14
 -0.15089662D-12 -0.23904864D-12  0.60479388D-14 -0.26906498D-12 -0.25899635D-12
  0.59480585D-14  0.73001101D-30 -0.10311090D-11 -0.36143231D-11  0.65849738D-13
  0.11109610D-11  0.54964566D-11 -0.99085197D-13  0.19823660D-11  0.53465128D-11
 -0.98464018D-13  0.90326870D-29 -0.17078107D-16 -0.25326576D-16  0.62521156D-18
  0.19759639D-16  0.31105268D-16 -0.10422562D-17  0.31474683D-16  0.44874459D-16
 -0.83337850D-18  0.22454993D-33  0.00000000D+00  0.00000000D+00  0.00000000D+00
  0.00000000D+00  0.00000000D+00  0.00000000D+00  0.00000000D+00  0.00000000D+00
  0.00000000D+00  0.00000000D+00  0.00000000D+00  0.00000000D+00  0.00000000D+00
  0.00000000D+00  0.00000000D+00  0.00000000D+00  0.00000000D+00  0.00000000D+00
  0.00000000D+00  0.00000000D+00  0.00000000D+00  0.00000000D+00  0.00000000D+00
  0.00000000D+00  0.00000000D+00  0.00000000D+00  0.00000000D+00  0.00000000D+00
  0.00000000D+00  0.00000000D+00  0.00000000D+00  0.00000000D+00  0.00000000D+00
  0.00000000D+00  0.00000000D+00  0.00000000D+00  0.00000000D+00  0.00000000D+00
  0.00000000D+00  0.00000000D+00  0.00000000D+00  0.00000000D+00  0.00000000D+00
  0.00000000D+00  0.00000000D+00  0.00000000D+00  0.00000000D+00  0.00000000D+00
  0.00000000D+00  0.00000000D+00  0.00000000D+00  0.00000000D+00  0.00000000D+00
  0.00000000D+00  0.00000000D+00  0.00000000D+00  0.00000000D+00  0.00000000D+00
  0.00000000D+00  0.00000000D+00  0.10203432D-16  0.29082659D-14 -0.50657013D-16
  0.61525022D-15 -0.98106394D-16  0.64926185D-15  0.21688118D-13  0.50145274D-30
 -0.57109876D-13 -0.77792632D-31 -0.22826749D-13 -0.51377303D-16 -0.19295346D-13
  0.74060941D-15 -0.71078687D-14 -0.24339610D-13 -0.42366010D-30  0.64690124D-13
 -0.97746249D-16  0.67698253D-14 -0.40350513D-14 -0.16595358D-17 -0.56519356D-15
  0.74008829D-17 -0.68868639D-15  0.13145949D-16  0.16307121D-15 -0.14084602D-14
 -0.10173749D-30  0.37088044D-14  0.19970643D-32  0.14824050D-14  0.91944753D-17
  0.54572205D-14 -0.10107834D-15 -0.94202572D-15  0.15806523D-14  0.99740427D-31
 -0.42010781D-14  0.12249153D-16 -0.43852389D-15  0.26204258D-15
MO    5     MO 0.0        OCC NO =    1.9795436  ORB. ENERGY =    0.000000
  0.00000000D+00  0.00000000D+00  0.00000000D+00  0.00000000D+00  0.00000000D+00
  0.00000000D+00  0.00000000D+00  0.00000000D+00  0.00000000D+00  0.00000000D+00
  0.00000000D+00  0.00000000D+00  0.00000000D+00  0.00000000D+00  0.00000000D+00
  0.00000000D+00  0.00000000D+00  0.00000000D+00  0.00000000D+00  0.00000000D+00
  0.00000000D+00  0.00000000D+00  0.00000000D+00  0.00000000D+00  0.00000000D+00
 -0.15076290D-14 -0.20059311D-14 -0.22687463D-14 -0.20894439D-14  0.37590648D-01
  0.50015122D-01  0.56568056D-01  0.52097399D-01  0.18578379D+01  0.24718911D+01
  0.27957559D+01  0.25748032D+01  0.14543334D-14  0.34580799D-01  0.17090825D+01
 -0.41489755D-15  0.14869350D-01  0.73488600D+00  0.60911468D-16  0.41089762D-02
  0.20307742D+00 -0.87675196D-17  0.48424966D-03  0.23933010D-01 -0.42065571D-14
  0.52036989D-04  0.25718176D-02  0.94249912D-14 -0.15406312D-03 -0.76142424D-02
  0.53938690D-13  0.14435054D-03  0.71342186D-02 -0.82765097D-13 -0.19308823D-03
 -0.95429755D-02 -0.18030022D-17  0.38846547D-05  0.19199080D-03  0.00000000D+00
  0.00000000D+00  0.00000000D+00  0.00000000D+00  0.00000000D+00  0.00000000D+00
  0.00000000D+00  0.00000000D+00  0.00000000D+00  0.00000000D+00  0.00000000D+00
  0.00000000D+00  0.00000000D+00  0.00000000D+00  0.00000000D+00  0.00000000D+00
  0.00000000D+00  0.00000000D+00  0.00000000D+00  0.00000000D+00  0.00000000D+00
  0.00000000D+00  0.00000000D+00  0.00000000D+00  0.00000000D+00  0.00000000D+00
  0.00000000D+00  0.00000000D+00  0.00000000D+00  0.00000000D+00  0.00000000D+00
  0.00000000D+00  0.00000000D+00  0.00000000D+00  0.00000000D+00  0.00000000D+00
  0.00000000D+00  0.00000000D+00  0.00000000D+00  0.00000000D+00  0.00000000D+00
  0.00000000D+00  0.00000000D+00  0.00000000D+00  0.00000000D+00  0.00000000D+00
  0.00000000D+00  0.00000000D+00  0.15889215D-13 -0.60770922D-15 -0.29294684D-13
 -0.22215208D-13  0.96156271D-15  0.45265798D-13 -0.25452438D-13  0.86156495D-15
  0.42618252D-13 -0.26624416D-29  0.30650509D-14  0.10907963D-15  0.52544102D-14
 -0.16356751D-15 -0.15780436D-15 -0.80348104D-14 -0.90315853D-14 -0.16943453D-15
 -0.77284200D-14  0.12482290D-30 -0.82382223D-15 -0.69196190D-17 -0.36978254D-15
  0.53155053D-15  0.11983713D-16  0.53941296D-15  0.19399162D-14  0.87751434D-17
  0.56993468D-15 -0.47586595D-32 -0.44829005D-12  0.33590721D-14  0.19762556D-12
  0.42205436D-12 -0.48368016D-14 -0.29890652D-12  0.92281580D-12 -0.52404146D-14
 -0.29397015D-12  0.40037662D-28  0.35030326D-11 -0.73130573D-13 -0.32544834D-11
 -0.30497873D-11  0.11121281D-12  0.48970753D-11 -0.74593105D-11  0.10817891D-12
  0.48663748D-11  0.19639845D-27  0.76628735D-16 -0.51244643D-18 -0.30899753D-16
 -0.49375784D-16  0.62936986D-18  0.51511297D-16 -0.18051042D-15  0.90796943D-18
  0.41187961D-16 -0.85050440D-33  0.00000000D+00  0.00000000D+00  0.00000000D+00
  0.00000000D+00  0.00000000D+00  0.00000000D+00  0.00000000D+00  0.00000000D+00
  0.00000000D+00  0.00000000D+00  0.00000000D+00  0.00000000D+00  0.00000000D+00
  0.00000000D+00  0.00000000D+00  0.00000000D+00  0.00000000D+00  0.00000000D+00
  0.00000000D+00  0.00000000D+00  0.00000000D+00  0.00000000D+00  0.00000000D+00
  0.00000000D+00  0.00000000D+00  0.00000000D+00  0.00000000D+00  0.00000000D+00
  0.00000000D+00  0.00000000D+00  0.00000000D+00  0.00000000D+00  0.00000000D+00
  0.00000000D+00  0.00000000D+00  0.00000000D+00  0.00000000D+00  0.00000000D+00
  0.00000000D+00  0.00000000D+00  0.00000000D+00  0.00000000D+00  0.00000000D+00
  0.00000000D+00  0.00000000D+00  0.00000000D+00  0.00000000D+00  0.00000000D+00
  0.00000000D+00  0.00000000D+00  0.00000000D+00  0.00000000D+00  0.00000000D+00
  0.00000000D+00  0.00000000D+00  0.00000000D+00  0.00000000D+00  0.00000000D+00
  0.00000000D+00  0.00000000D+00 -0.50428292D-15  0.58844531D-16  0.25036152D-14
  0.12448694D-16  0.48487000D-14  0.13136869D-16 -0.88439917D-14 -0.41366706D-30
 -0.43895832D-14 -0.24480355D-29  0.72652994D-14  0.25392140D-14 -0.39041327D-15
 -0.36603046D-13 -0.14381739D-15  0.19151178D-13  0.28617026D-29 -0.13067404D-13
  0.48309006D-14  0.13697757D-15 -0.60837735D-15  0.82019031D-16 -0.11435870D-16
 -0.36577291D-15 -0.13934568D-16 -0.64971058D-15  0.32995088D-17  0.57434261D-15
  0.20489397D-31  0.28506645D-15  0.58710395D-30 -0.47181951D-15 -0.45441740D-15
  0.11041892D-15  0.49955822D-14 -0.19060521D-16 -0.12437074D-14 -0.60759334D-30
  0.84861688D-15 -0.60538833D-15 -0.88728933D-17  0.39509050D-16
MO    6     MO 0.0        OCC NO =    0.0117205  ORB. ENERGY =    0.000000
  0.00000000D+00  0.00000000D+00  0.00000000D+00  0.00000000D+00  0.00000000D+00
  0.00000000D+00  0.00000000D+00  0.00000000D+00  0.00000000D+00  0.00000000D+00
  0.00000000D+00  0.00000000D+00  0.00000000D+00  0.00000000D+00  0.00000000D+00
  0.00000000D+00  0.00000000D+00  0.00000000D+00  0.00000000D+00  0.00000000D+00
  0.00000000D+00  0.00000000D+00  0.00000000D+00  0.00000000D+00  0.00000000D+00
 -0.29559751D+01 -0.39329850D+01 -0.44482810D+01 -0.40967268D+01  0.57061762D-16