 Title Card Required
GAUSSIAN             72 MOL ORBITALS    274 PRIMITIVES        1 NUCLEI
  Ne   1    (CENTRE  1)   0.00000000  0.00000000  0.00000000  CHARGE = 10.0
CENTRE ASSIGNMENTS    1  1  1  1  1  1  1  1  1  1  1  1  1  1  1  1  1  1  1  1
CENTRE ASSIGNMENTS    1  1  1  1  1  1  1  1  1  1  1  1  1  1  1  1  1  1  1  1
CENTRE ASSIGNMENTS    1  1  1  1  1  1  1  1  1  1  1  1  1  1  1  1  1  1  1  1
CENTRE ASSIGNMENTS    1  1  1  1  1  1  1  1  1  1  1  1  1  1  1  1  1  1  1  1
CENTRE ASSIGNMENTS    1  1  1  1  1  1  1  1  1  1  1  1  1  1  1  1  1  1  1  1
CENTRE ASSIGNMENTS    1  1  1  1  1  1  1  1  1  1  1  1  1  1  1  1  1  1  1  1
CENTRE ASSIGNMENTS    1  1  1  1  1  1  1  1  1  1  1  1  1  1  1  1  1  1  1  1
CENTRE ASSIGNMENTS    1  1  1  1  1  1  1  1  1  1  1  1  1  1  1  1  1  1  1  1
CENTRE ASSIGNMENTS    1  1  1  1  1  1  1  1  1  1  1  1  1  1  1  1  1  1  1  1
CENTRE ASSIGNMENTS    1  1  1  1  1  1  1  1  1  1  1  1  1  1  1  1  1  1  1  1
CENTRE ASSIGNMENTS    1  1  1  1  1  1  1  1  1  1  1  1  1  1  1  1  1  1  1  1
CENTRE ASSIGNMENTS    1  1  1  1  1  1  1  1  1  1  1  1  1  1  1  1  1  1  1  1
CENTRE ASSIGNMENTS    1  1  1  1  1  1  1  1  1  1  1  1  1  1  1  1  1  1  1  1
CENTRE ASSIGNMENTS    1  1  1  1  1  1  1  1  1  1  1  1  1  1
TYPE ASSIGNMENTS      1  1  1  1  1  1  1  1  1  1  1  1  1  1  1  1  1  1  1  1
TYPE ASSIGNMENTS      1  1  1  1  1  2  2  2  2  3  3  3  3  4  4  4  4  2  3  4
TYPE ASSIGNMENTS      2  3  4  2  3  4  2  3  4  2  3  4  2  3  4  2  3  4  2  3
TYPE ASSIGNMENTS      4  2  3  4  5  6  7  8  9 10  5  6  7  8  9 10  5  6  7  8
TYPE ASSIGNMENTS      9 10  5  6  7  8  9 10  5  6  7  8  9 10  5  6  7  8  9 10
TYPE ASSIGNMENTS      5  6  7  8  9 10  5  6  7  8  9 10 11 12 13 17 14 15 18 19
TYPE ASSIGNMENTS     16 20 11 12 13 17 14 15 18 19 16 20 11 12 13 17 14 15 18 19
TYPE ASSIGNMENTS     16 20 11 12 13 17 14 15 18 19 16 20 11 12 13 17 14 15 18 19
TYPE ASSIGNMENTS     16 20 11 12 13 17 14 15 18 19 16 20 23 29 32 27 22 28 35 34
TYPE ASSIGNMENTS     26 31 33 30 25 24 21 23 29 32 27 22 28 35 34 26 31 33 30 25
TYPE ASSIGNMENTS     24 21 23 29 32 27 22 28 35 34 26 31 33 30 25 24 21 23 29 32
TYPE ASSIGNMENTS     27 22 28 35 34 26 31 33 30 25 24 21 36 37 38 39 40 41 42 43
TYPE ASSIGNMENTS     44 45 46 47 48 49 50 51 52 53 54 55 56 36 37 38 39 40 41 42
TYPE ASSIGNMENTS     43 44 45 46 47 48 49 50 51 52 53 54 55 56
EXPONENTS  0.2627000D+06 0.3935000D+05 0.8955000D+04 0.2538000D+04 0.8299000D+03
EXPONENTS  0.3015000D+03 0.1190000D+03 0.5000000D+02 0.2198000D+02 0.2538000D+04
EXPONENTS  0.8299000D+03 0.3015000D+03 0.1190000D+03 0.5000000D+02 0.2198000D+02
EXPONENTS  0.9891000D+01 0.4327000D+01 0.1804000D+01 0.7288000D+00 0.2867000D+00
EXPONENTS  0.1985600D+02 0.4254100D+02 0.9113900D+02 0.1952560D+03 0.9570000D-01
EXPONENTS  0.2991000D+03 0.7073000D+02 0.2248000D+02 0.8246000D+01 0.2991000D+03
EXPONENTS  0.7073000D+02 0.2248000D+02 0.8246000D+01 0.2991000D+03 0.7073000D+02
EXPONENTS  0.2248000D+02 0.8246000D+01 0.3269000D+01 0.3269000D+01 0.3269000D+01
EXPONENTS  0.1315000D+01 0.1315000D+01 0.1315000D+01 0.5158000D+00 0.5158000D+00
EXPONENTS  0.5158000D+00 0.1918000D+00 0.1918000D+00 0.1918000D+00 0.1809300D+02
EXPONENTS  0.1809300D+02 0.1809300D+02 0.4346900D+02 0.4346900D+02 0.4346900D+02
EXPONENTS  0.1044380D+03 0.1044380D+03 0.1044380D+03 0.2509190D+03 0.2509190D+03
EXPONENTS  0.2509190D+03 0.6540000D-01 0.6540000D-01 0.6540000D-01 0.9837000D+01
EXPONENTS  0.9837000D+01 0.9837000D+01 0.9837000D+01 0.9837000D+01 0.9837000D+01
EXPONENTS  0.3844000D+01 0.3844000D+01 0.3844000D+01 0.3844000D+01 0.3844000D+01
EXPONENTS  0.3844000D+01 0.1502000D+01 0.1502000D+01 0.1502000D+01 0.1502000D+01
EXPONENTS  0.1502000D+01 0.1502000D+01 0.5870000D+00 0.5870000D+00 0.5870000D+00
EXPONENTS  0.5870000D+00 0.5870000D+00 0.5870000D+00 0.2311500D+02 0.2311500D+02
EXPONENTS  0.2311500D+02 0.2311500D+02 0.2311500D+02 0.2311500D+02 0.5898300D+02
EXPONENTS  0.5898300D+02 0.5898300D+02 0.5898300D+02 0.5898300D+02 0.5898300D+02
EXPONENTS  0.1505080D+03 0.1505080D+03 0.1505080D+03 0.1505080D+03 0.1505080D+03
EXPONENTS  0.1505080D+03 0.2130000D+00 0.2130000D+00 0.2130000D+00 0.2130000D+00
EXPONENTS  0.2130000D+00 0.2130000D+00 0.7090000D+01 0.7090000D+01 0.7090000D+01
EXPONENTS  0.7090000D+01 0.7090000D+01 0.7090000D+01 0.7090000D+01 0.7090000D+01
EXPONENTS  0.7090000D+01 0.7090000D+01 0.2738000D+01 0.2738000D+01 0.2738000D+01
EXPONENTS  0.2738000D+01 0.2738000D+01 0.2738000D+01 0.2738000D+01 0.2738000D+01
EXPONENTS  0.2738000D+01 0.2738000D+01 0.1057000D+01 0.1057000D+01 0.1057000D+01
EXPONENTS  0.1057000D+01 0.1057000D+01 0.1057000D+01 0.1057000D+01 0.1057000D+01
EXPONENTS  0.1057000D+01 0.1057000D+01 0.2146000D+02 0.2146000D+02 0.2146000D+02
EXPONENTS  0.2146000D+02 0.2146000D+02 0.2146000D+02 0.2146000D+02 0.2146000D+02
EXPONENTS  0.2146000D+02 0.2146000D+02 0.6236800D+02 0.6236800D+02 0.6236800D+02
EXPONENTS  0.6236800D+02 0.6236800D+02 0.6236800D+02 0.6236800D+02 0.6236800D+02
EXPONENTS  0.6236800D+02 0.6236800D+02 0.4250000D+00 0.4250000D+00 0.4250000D+00
EXPONENTS  0.4250000D+00 0.4250000D+00 0.4250000D+00 0.4250000D+00 0.4250000D+00
EXPONENTS  0.4250000D+00 0.4250000D+00 0.5460000D+01 0.5460000D+01 0.5460000D+01
EXPONENTS  0.5460000D+01 0.5460000D+01 0.5460000D+01 0.5460000D+01 0.5460000D+01
EXPONENTS  0.5460000D+01 0.5460000D+01 0.5460000D+01 0.5460000D+01 0.5460000D+01
EXPONENTS  0.5460000D+01 0.5460000D+01 0.1880000D+01 0.1880000D+01 0.1880000D+01
EXPONENTS  0.1880000D+01 0.1880000D+01 0.1880000D+01 0.1880000D+01 0.1880000D+01
EXPONENTS  0.1880000D+01 0.1880000D+01 0.1880000D+01 0.1880000D+01 0.1880000D+01
EXPONENTS  0.1880000D+01 0.1880000D+01 0.2497300D+02 0.2497300D+02 0.2497300D+02
EXPONENTS  0.2497300D+02 0.2497300D+02 0.2497300D+02 0.2497300D+02 0.2497300D+02
EXPONENTS  0.2497300D+02 0.2497300D+02 0.2497300D+02 0.2497300D+02 0.2497300D+02
EXPONENTS  0.2497300D+02 0.2497300D+02 0.8090000D+00 0.8090000D+00 0.8090000D+00
EXPONENTS  0.8090000D+00 0.8090000D+00 0.8090000D+00 0.8090000D+00 0.8090000D+00
EXPONENTS  0.8090000D+00 0.8090000D+00 0.8090000D+00 0.8090000D+00 0.8090000D+00
EXPONENTS  0.8090000D+00 0.8090000D+00 0.3776000D+01 0.3776000D+01 0.3776000D+01
EXPONENTS  0.3776000D+01 0.3776000D+01 0.3776000D+01 0.3776000D+01 0.3776000D+01
EXPONENTS  0.3776000D+01 0.3776000D+01 0.3776000D+01 0.3776000D+01 0.3776000D+01
EXPONENTS  0.3776000D+01 0.3776000D+01 0.3776000D+01 0.3776000D+01 0.3776000D+01
EXPONENTS  0.3776000D+01 0.3776000D+01 0.3776000D+01 0.1628000D+01 0.1628000D+01
EXPONENTS  0.1628000D+01 0.1628000D+01 0.1628000D+01 0.1628000D+01 0.1628000D+01
EXPONENTS  0.1628000D+01 0.1628000D+01 0.1628000D+01 0.1628000D+01 0.1628000D+01
EXPONENTS  0.1628000D+01 0.1628000D+01 0.1628000D+01 0.1628000D+01 0.1628000D+01
EXPONENTS  0.1628000D+01 0.1628000D+01 0.1628000D+01 0.1628000D+01
MO    1     MO 0.0        OCC NO =    1.9994604  ORB. ENERGY =    0.000000
  0.21964901D+00  0.40126664D+00  0.69357715D+00  0.11264790D+01  0.17254460D+01
  0.24186186D+01  0.29953272D+01  0.28953948D+01  0.16887963D+01  0.24678177D-02
  0.10756236D-01  0.60635291D-01  0.18235377D+00  0.50891737D+00  0.97517294D+00
  0.11141321D+01  0.10999009D+00 -0.25323730D-02  0.50695607D-03 -0.89137803D-04
  0.20232345D-01  0.72274219D-02  0.63316202D-02  0.15766965D-02  0.90359899D-05
  0.00000000D+00  0.00000000D+00  0.00000000D+00  0.00000000D+00  0.00000000D+00
  0.00000000D+00  0.00000000D+00  0.00000000D+00  0.00000000D+00  0.00000000D+00
  0.00000000D+00  0.00000000D+00  0.00000000D+00  0.00000000D+00  0.00000000D+00
  0.00000000D+00  0.00000000D+00  0.00000000D+00  0.00000000D+00  0.00000000D+00
  0.00000000D+00  0.00000000D+00  0.00000000D+00  0.00000000D+00  0.00000000D+00
  0.00000000D+00  0.00000000D+00  0.00000000D+00  0.00000000D+00  0.00000000D+00
  0.00000000D+00  0.00000000D+00  0.00000000D+00  0.00000000D+00  0.00000000D+00
  0.00000000D+00  0.00000000D+00  0.00000000D+00  0.00000000D+00  0.69849606D-13
 -0.12879475D-12  0.58945144D-13 -0.26360385D-29 -0.71187848D-30  0.73949748D-14
 -0.14766330D-13  0.22183686D-13 -0.74173553D-14  0.39737494D-30  0.10492135D-30
 -0.20123747D-14  0.23360588D-14 -0.33440148D-14  0.10079559D-14 -0.12104877D-30
 -0.31131706D-31  0.47401857D-16 -0.37487970D-15  0.38227330D-15 -0.73935988D-17
  0.24024933D-31  0.66441336D-32  0.20679030D-15 -0.25794717D-12  0.50663008D-12
 -0.24868292D-12  0.10377566D-28  0.27886764D-29 -0.17689203D-13  0.10849505D-11
 -0.16517763D-11  0.56682586D-12 -0.53007586D-28 -0.14534124D-28  0.35035244D-13
 -0.21512262D-11  0.23193670D-11 -0.16814074D-12  0.26199220D-27  0.72910176D-28
 -0.76204563D-14  0.30548050D-16 -0.36642037D-16  0.60939868D-17 -0.13290304D-32
 -0.34261421D-33 -0.36226118D-16  0.00000000D+00  0.00000000D+00  0.00000000D+00
  0.00000000D+00  0.00000000D+00  0.00000000D+00  0.00000000D+00  0.00000000D+00
  0.00000000D+00  0.00000000D+00  0.00000000D+00  0.00000000D+00  0.00000000D+00
  0.00000000D+00  0.00000000D+00  0.00000000D+00  0.00000000D+00  0.00000000D+00
  0.00000000D+00  0.00000000D+00  0.00000000D+00  0.00000000D+00  0.00000000D+00
  0.00000000D+00  0.00000000D+00  0.00000000D+00  0.00000000D+00  0.00000000D+00
  0.00000000D+00  0.00000000D+00  0.00000000D+00  0.00000000D+00  0.00000000D+00
  0.00000000D+00  0.00000000D+00  0.00000000D+00  0.00000000D+00  0.00000000D+00
  0.00000000D+00  0.00000000D+00  0.00000000D+00  0.00000000D+00  0.00000000D+00
  0.00000000D+00  0.00000000D+00  0.00000000D+00  0.00000000D+00  0.00000000D+00
  0.00000000D+00  0.00000000D+00  0.00000000D+00  0.00000000D+00  0.00000000D+00
  0.00000000D+00  0.00000000D+00  0.00000000D+00  0.00000000D+00  0.00000000D+00
  0.00000000D+00  0.00000000D+00 -0.17329891D-14  0.24673426D-13 -0.36897147D-13
 -0.41980000D-13 -0.20351826D-13 -0.11285537D-29 -0.88410598D-30 -0.37922633D-30
  0.28744795D-29  0.47295081D-13  0.51919724D-13  0.15900810D-12  0.12549625D-29
 -0.25797775D-29 -0.34383864D-13 -0.13157148D-15 -0.22853647D-14  0.26083424D-14
  0.38883780D-14 -0.14854778D-15  0.43968231D-31  0.32559939D-30  0.11608938D-30
 -0.17206063D-30 -0.18189135D-14 -0.48090400D-14 -0.17170557D-14 -0.82664691D-31
  0.63527499D-31  0.58932821D-15 -0.32233271D-12 -0.42417490D-12 -0.15959935D-11
  0.72170212D-12  0.45831108D-13 -0.73609879D-29 -0.92223411D-28 -0.34692132D-28
 -0.80896965D-28  0.35299897D-11 -0.89258168D-12  0.13210069D-11  0.18925032D-28
  0.11163810D-27 -0.80849944D-12  0.11469474D-15  0.16994987D-15 -0.17526688D-15
 -0.28915705D-15  0.43531189D-17 -0.15325269D-32 -0.17371699D-31 -0.67249558D-32
 -0.24850301D-31 -0.51290156D-15  0.35762156D-15  0.14914817D-15  0.37741788D-32
  0.30640867D-31  0.60625566D-16  0.00000000D+00  0.00000000D+00  0.00000000D+00
  0.00000000D+00  0.00000000D+00  0.00000000D+00  0.00000000D+00  0.00000000D+00
  0.00000000D+00  0.00000000D+00  0.00000000D+00  0.00000000D+00  0.00000000D+00
  0.00000000D+00  0.00000000D+00  0.00000000D+00  0.00000000D+00  0.00000000D+00
  0.00000000D+00  0.00000000D+00  0.00000000D+00  0.00000000D+00  0.00000000D+00
  0.00000000D+00  0.00000000D+00  0.00000000D+00  0.00000000D+00  0.00000000D+00
  0.00000000D+00  0.00000000D+00  0.00000000D+00  0.00000000D+00  0.00000000D+00
  0.00000000D+00  0.00000000D+00  0.00000000D+00  0.00000000D+00  0.00000000D+00
  0.00000000D+00  0.00000000D+00  0.00000000D+00  0.00000000D+00
MO    2     MO 0.0        OCC NO =    0.0001893  ORB. ENERGY =    0.000000
  0.38004694D+00  0.69429022D+00  0.12000595D+01  0.19490864D+01  0.29854471D+01
  0.41848066D+01  0.51826545D+01  0.50097468D+01  0.29220340D+01 -0.58991880D-02
 -0.25712214D-01 -0.14494546D+00 -0.43590705D+00 -0.12165401D+01 -0.23310994D+01
 -0.26632741D+01 -0.41447066D+00  0.22736504D-01 -0.51258840D-02  0.97708828D-03
 -0.22759013D+01  0.32921696D+01  0.51817523D+01  0.29858726D+01 -0.10256684D-03
  0.00000000D+00  0.00000000D+00  0.00000000D+00  0.00000000D+00  0.00000000D+00
  0.00000000D+00  0.00000000D+00  0.00000000D+00  0.00000000D+00  0.00000000D+00
  0.00000000D+00  0.00000000D+00  0.00000000D+00  0.00000000D+00  0.00000000D+00
  0.00000000D+00  0.00000000D+00  0.00000000D+00  0.00000000D+00  0.00000000D+00
  0.00000000D+00  0.00000000D+00  0.00000000D+00  0.00000000D+00  0.00000000D+00
  0.00000000D+00  0.00000000D+00  0.00000000D+00  0.00000000D+00  0.00000000D+00
  0.00000000D+00  0.00000000D+00  0.00000000D+00  0.00000000D+00  0.00000000D+00
  0.00000000D+00  0.00000000D+00  0.00000000D+00  0.00000000D+00  0.21447795D-12
 -0.65427520D-12  0.43979725D-12  0.41786758D-30  0.11284775D-30  0.15040823D-11
 -0.10788478D-12  0.12109849D-12 -0.13213712D-13 -0.62989735D-31 -0.16631535D-31
 -0.43473376D-12  0.14564502D-13 -0.10775810D-13 -0.37886919D-14  0.19188028D-31
  0.49348341D-32 -0.56534034D-14 -0.11117768D-14  0.67225984D-15  0.43951692D-15
 -0.38083106D-32 -0.10531941D-32  0.52362056D-13  0.18065408D-11  0.49003694D-12
 -0.22965777D-11 -0.16447498D-29 -0.44196590D-30 -0.29573510D-11 -0.10520351D-11
 -0.17601921D-11  0.28122272D-11  0.83968813D-29  0.23023580D-29  0.47550494D-11
 -0.32194733D-11  0.56804911D-11 -0.24610178D-11 -0.41567138D-28 -0.11567816D-28
 -0.54556590D-11  0.13354804D-16 -0.35979546D-16  0.22624742D-16  0.21067116D-33
  0.54309452D-34 -0.85816634D-14  0.00000000D+00  0.00000000D+00  0.00000000D+00
  0.00000000D+00  0.00000000D+00  0.00000000D+00  0.00000000D+00  0.00000000D+00
  0.00000000D+00  0.00000000D+00  0.00000000D+00  0.00000000D+00  0.00000000D+00
  0.00000000D+00  0.00000000D+00  0.00000000D+00  0.00000000D+00  0.00000000D+00
  0.00000000D+00  0.00000000D+00  0.00000000D+00  0.00000000D+00  0.00000000D+00
  0.00000000D+00  0.00000000D+00  0.00000000D+00  0.00000000D+00  0.00000000D+00
  0.00000000D+00  0.00000000D+00  0.00000000D+00  0.00000000D+00  0.00000000D+00
  0.00000000D+00  0.00000000D+00  0.00000000D+00  0.00000000D+00  0.00000000D+00
  0.00000000D+00  0.00000000D+00  0.00000000D+00  0.00000000D+00  0.00000000D+00
  0.00000000D+00  0.00000000D+00  0.00000000D+00  0.00000000D+00  0.00000000D+00
  0.00000000D+00  0.00000000D+00  0.00000000D+00  0.00000000D+00  0.00000000D+00
  0.00000000D+00  0.00000000D+00  0.00000000D+00  0.00000000D+00  0.00000000D+00
  0.00000000D+00  0.00000000D+00  0.36336106D-12  0.59090937D-11 -0.10560567D-11
 -0.10153759D-10  0.46414050D-12  0.17889194D-30  0.14013960D-30  0.60111364D-31
 -0.45565100D-30 -0.11241096D-11  0.12733996D-10 -0.17287863D-11 -0.19892907D-30
  0.40893779D-30  0.47548266D-12  0.25954216D-13 -0.55879289D-12 -0.93303432D-13
  0.94969970D-12  0.25228823D-13 -0.69696025D-32 -0.51612262D-31 -0.18401860D-31
  0.27274275D-31 -0.62421866D-13 -0.11727204D-11 -0.58069506D-13  0.13103556D-31
 -0.10070188D-31  0.20081895D-13  0.11479436D-10 -0.96375749D-10 -0.54147534D-10
  0.17041303D-09 -0.54347057D-11  0.11672516D-29  0.14621156D-28  0.55001260D-29
  0.12824834D-28 -0.14729080D-10 -0.22211184D-09  0.86755768D-10 -0.30006269D-29
 -0.17698553D-28 -0.12004448D-10 -0.22998875D-14  0.41961854D-13  0.77393052D-14
 -0.70951459D-13 -0.21157950D-14  0.24292756D-33  0.27536695D-32  0.10660043D-32
  0.39391423D-32  0.60600200D-14  0.86968814D-13  0.49554650D-14 -0.59826234D-33
 -0.48570321D-32 -0.18359142D-14  0.00000000D+00  0.00000000D+00  0.00000000D+00
  0.00000000D+00  0.00000000D+00  0.00000000D+00  0.00000000D+00  0.00000000D+00
  0.00000000D+00  0.00000000D+00  0.00000000D+00  0.00000000D+00  0.00000000D+00
  0.00000000D+00  0.00000000D+00  0.00000000D+00  0.00000000D+00  0.00000000D+00
  0.00000000D+00  0.00000000D+00  0.00000000D+00  0.00000000D+00  0.00000000D+00
  0.00000000D+00  0.00000000D+00  0.00000000D+00  0.00000000D+00  0.00000000D+00
  0.00000000D+00  0.00000000D+00  0.00000000D+00  0.00000000D+00  0.00000000D+00
  0.00000000D+00  0.00000000D+00  0.00000000D+00  0.00000000D+00  0.00000000D+00
  0.00000000D+00  0.00000000D+00  0.00000000D+00  0.00000000D+00
MO    3     MO 0.0        OCC NO =    0.0001032  ORB. ENERGY =    0.000000
  0.00000000D+00  0.00000000D+00  0.00000000D+00  0.00000000D+00  0.00000000D+00
  0.00000000D+00  0.00000000D+00  0.00000000D+00  0.00000000D+00  0.00000000D+00
  0.00000000D+00  0.00000000D+00  0.00000000D+00  0.00000000D+00  0.00000000D+00
  0.00000000D+00  0.00000000D+00  0.00000000D+00  0.00000000D+00  0.00000000D+00
  0.00000000D+00  0.00000000D+00  0.00000000D+00  0.00000000D+00  0.00000000D+00
  0.00000000D+00  0.00000000D+00  0.00000000D+00  0.00000000D+00  0.00000000D+00
  0.00000000D+00  0.00000000D+00  0.00000000D+00  0.83651715D+00  0.11130031D+01
  0.12588277D+01  0.11593407D+01  0.00000000D+00  0.00000000D+00  0.33503774D-01
  0.00000000D+00  0.00000000D+00 -0.49708797D-02  0.00000000D+00  0.00000000D+00
  0.76441462D-03  0.00000000D+00  0.00000000D+00 -0.93864657D-04  0.00000000D+00
  0.00000000D+00  0.20610485D+02  0.00000000D+00  0.00000000D+00  0.77127824D+02
  0.00000000D+00  0.00000000D+00  0.68399925D+02  0.00000000D+00  0.00000000D+00
  0.44016058D+02  0.00000000D+00  0.00000000D+00  0.72077167D-05  0.00000000D+00
  0.00000000D+00  0.00000000D+00  0.00000000D+00  0.00000000D+00  0.00000000D+00
  0.00000000D+00  0.00000000D+00  0.00000000D+00  0.00000000D+00  0.00000000D+00
  0.00000000D+00  0.00000000D+00  0.00000000D+00  0.00000000D+00  0.00000000D+00
  0.00000000D+00  0.00000000D+00  0.00000000D+00  0.00000000D+00  0.00000000D+00
  0.00000000D+00  0.00000000D+00  0.00000000D+00  0.00000000D+00  0.00000000D+00
  0.00000000D+00  0.00000000D+00  0.00000000D+00  0.00000000D+00  0.00000000D+00
  0.00000000D+00  0.00000000D+00  0.00000000D+00  0.00000000D+00  0.00000000D+00
  0.00000000D+00  0.00000000D+00  0.00000000D+00  0.00000000D+00  0.00000000D+00
  0.00000000D+00  0.00000000D+00  0.00000000D+00  0.00000000D+00  0.00000000D+00
  0.00000000D+00  0.00000000D+00  0.00000000D+00  0.00000000D+00 -0.89922039D-13
  0.00000000D+00  0.00000000D+00  0.23129990D-12  0.00000000D+00  0.00000000D+00
  0.38466221D-13  0.00000000D+00  0.00000000D+00  0.00000000D+00 -0.33067081D-13
  0.00000000D+00  0.00000000D+00  0.35296177D-13  0.00000000D+00  0.00000000D+00
  0.63905065D-13  0.00000000D+00  0.00000000D+00  0.00000000D+00  0.24090770D-14
  0.00000000D+00  0.00000000D+00 -0.20894349D-14  0.00000000D+00  0.00000000D+00
 -0.51377961D-14  0.00000000D+00  0.00000000D+00  0.00000000D+00  0.32445270D-12
  0.00000000D+00  0.00000000D+00 -0.16915613D-11  0.00000000D+00  0.00000000D+00
  0.71820321D-12  0.00000000D+00  0.00000000D+00  0.00000000D+00 -0.24370580D-11
  0.00000000D+00  0.00000000D+00  0.66390705D-11  0.00000000D+00  0.00000000D+00
  0.67210342D-12  0.00000000D+00  0.00000000D+00  0.00000000D+00 -0.13387828D-15
  0.00000000D+00  0.00000000D+00  0.73971502D-16  0.00000000D+00  0.00000000D+00
  0.32766335D-15  0.00000000D+00  0.00000000D+00  0.00000000D+00  0.00000000D+00
  0.00000000D+00  0.00000000D+00  0.00000000D+00  0.00000000D+00  0.00000000D+00
  0.00000000D+00  0.00000000D+00  0.00000000D+00  0.00000000D+00  0.00000000D+00
  0.00000000D+00  0.00000000D+00  0.00000000D+00  0.00000000D+00  0.00000000D+00
  0.00000000D+00  0.00000000D+00  0.00000000D+00  0.00000000D+00  0.00000000D+00
  0.00000000D+00  0.00000000D+00  0.00000000D+00  0.00000000D+00  0.00000000D+00
  0.00000000D+00  0.00000000D+00  0.00000000D+00  0.00000000D+00  0.00000000D+00
  0.00000000D+00  0.00000000D+00  0.00000000D+00  0.00000000D+00  0.00000000D+00
  0.00000000D+00  0.00000000D+00  0.00000000D+00  0.00000000D+00  0.00000000D+00
  0.00000000D+00  0.00000000D+00  0.00000000D+00  0.00000000D+00  0.00000000D+00
  0.00000000D+00  0.00000000D+00  0.00000000D+00  0.00000000D+00  0.00000000D+00
  0.00000000D+00  0.00000000D+00  0.00000000D+00  0.00000000D+00  0.00000000D+00
  0.00000000D+00  0.00000000D+00 -0.86235595D-13  0.00000000D+00  0.43803726D-12
  0.00000000D+00 -0.10055192D-11  0.00000000D+00  0.00000000D+00  0.00000000D+00
  0.00000000D+00  0.00000000D+00  0.00000000D+00  0.42431868D-12  0.00000000D+00
  0.47190034D-11  0.00000000D+00  0.00000000D+00  0.00000000D+00  0.00000000D+00
 -0.99865991D-12  0.00000000D+00  0.00000000D+00  0.40374752D-14  0.00000000D+00
 -0.19164674D-13  0.00000000D+00  0.74493479D-13  0.00000000D+00  0.00000000D+00
  0.00000000D+00  0.00000000D+00  0.00000000D+00  0.00000000D+00 -0.21210079D-13
  0.00000000D+00 -0.38946685D-12  0.00000000D+00  0.00000000D+00  0.00000000D+00
  0.00000000D+00  0.75516181D-13  0.00000000D+00  0.00000000D+00
MO    4     MO 0.0        OCC NO =    0.0001032  ORB. ENERGY =    0.000000
  0.00000000D+00  0.00000000D+00  0.00000000D+00  0.00000000D+00  0.00000000D+00
  0.00000000D+00  0.00000000D+00  0.00000000D+00  0.00000000D+00  0.00000000D+00
  0.00000000D+00  0.00000000D+00  0.00000000D+00  0.00000000D+00  0.00000000D+00
  0.00000000D+00  0.00000000D+00  0.00000000D+00  0.00000000D+00  0.00000000D+00
  0.00000000D+00  0.00000000D+00  0.00000000D+00  0.00000000D+00  0.00000000D+00
  0.83651715D+00  0.11130031D+01  0.12588277D+01  0.11593407D+01  0.00000000D+00
  0.00000000D+00  0.00000000D+00  0.00000000D+00  0.00000000D+00  0.00000000D+00
  0.00000000D+00  0.00000000D+00  0.33503774D-01  0.00000000D+00  0.00000000D+00
 -0.49708797D-02  0.00000000D+00  0.00000000D+00  0.76441462D-03  0.00000000D+00
  0.00000000D+00 -0.93864657D-04  0.00000000D+00  0.00000000D+00  0.20610485D+02
  0.00000000D+00  0.00000000D+00  0.77127824D+02  0.00000000D+00  0.00000000D+00
  0.68399925D+02  0.00000000D+00  0.00000000D+00  0.44016058D+02  0.00000000D+00
  0.00000000D+00  0.72077167D-05  0.00000000D+00  0.00000000D+00  0.00000000D+00
  0.00000000D+00  0.00000000D+00  0.00000000D+00  0.00000000D+00  0.00000000D+00
  0.00000000D+00  0.00000000D+00  0.00000000D+00  0.00000000D+00  0.00000000D+00
  0.00000000D+00  0.00000000D+00  0.00000000D+00  0.00000000D+00  0.00000000D+00
  0.00000000D+00  0.00000000D+00  0.00000000D+00  0.00000000D+00  0.00000000D+00
  0.00000000D+00  0.00000000D+00  0.00000000D+00  0.00000000D+00  0.00000000D+00
  0.00000000D+00  0.00000000D+00  0.00000000D+00  0.00000000D+00  0.00000000D+00
  0.00000000D+00  0.00000000D+00  0.00000000D+00  0.00000000D+00  0.00000000D+00
  0.00000000D+00  0.00000000D+00  0.00000000D+00  0.00000000D+00  0.00000000D+00
  0.00000000D+00  0.00000000D+00  0.00000000D+00  0.00000000D+00  0.00000000D+00
  0.00000000D+00  0.00000000D+00 -0.14104678D-12  0.00000000D+00  0.00000000D+00
  0.27542006D-12  0.00000000D+00  0.00000000D+00  0.14772026D-12  0.00000000D+00
  0.00000000D+00  0.00000000D+00 -0.32242162D-13  0.00000000D+00  0.00000000D+00
  0.48425888D-13  0.00000000D+00  0.00000000D+00  0.48300598D-13  0.00000000D+00
  0.00000000D+00  0.00000000D+00  0.21142466D-14  0.00000000D+00  0.00000000D+00
 -0.33514496D-14  0.00000000D+00  0.00000000D+00 -0.29912903D-14  0.00000000D+00
  0.00000000D+00  0.00000000D+00  0.51655176D-12  0.00000000D+00  0.00000000D+00
 -0.11747485D-11  0.00000000D+00  0.00000000D+00 -0.37490673D-12  0.00000000D+00
  0.00000000D+00  0.00000000D+00 -0.47259345D-12  0.00000000D+00  0.00000000D+00
  0.66519795D-11  0.00000000D+00  0.00000000D+00 -0.52341991D-11  0.00000000D+00
  0.00000000D+00  0.00000000D+00 -0.89807236D-16  0.00000000D+00  0.00000000D+00
  0.13093260D-15  0.00000000D+00  0.00000000D+00  0.13848911D-15  0.00000000D+00
  0.00000000D+00  0.00000000D+00  0.00000000D+00  0.00000000D+00  0.00000000D+00
  0.00000000D+00  0.00000000D+00  0.00000000D+00  0.00000000D+00  0.00000000D+00
  0.00000000D+00  0.00000000D+00  0.00000000D+00  0.00000000D+00  0.00000000D+00
  0.00000000D+00  0.00000000D+00  0.00000000D+00  0.00000000D+00  0.00000000D+00
  0.00000000D+00  0.00000000D+00  0.00000000D+00  0.00000000D+00  0.00000000D+00
  0.00000000D+00  0.00000000D+00  0.00000000D+00  0.00000000D+00  0.00000000D+00
  0.00000000D+00  0.00000000D+00  0.00000000D+00  0.00000000D+00  0.00000000D+00
  0.00000000D+00  0.00000000D+00  0.00000000D+00  0.00000000D+00  0.00000000D+00
  0.00000000D+00  0.00000000D+00  0.00000000D+00  0.00000000D+00  0.00000000D+00
  0.00000000D+00  0.00000000D+00  0.00000000D+00  0.00000000D+00  0.00000000D+00
  0.00000000D+00  0.00000000D+00  0.00000000D+00  0.00000000D+00  0.00000000D+00
  0.00000000D+00  0.00000000D+00  0.00000000D+00  0.00000000D+00  0.00000000D+00
  0.00000000D+00  0.00000000D+00  0.00000000D+00  0.00000000D+00  0.00000000D+00
  0.00000000D+00  0.00000000D+00  0.00000000D+00 -0.10055128D-11  0.00000000D+00
  0.47502781D-11  0.00000000D+00 -0.98416462D-12  0.00000000D+00  0.00000000D+00
  0.00000000D+00  0.00000000D+00  0.42759965D-12  0.00000000D+00  0.38490321D-12
  0.00000000D+00  0.00000000D+00 -0.81250286D-13  0.00000000D+00  0.00000000D+00
  0.00000000D+00  0.00000000D+00  0.00000000D+00  0.00000000D+00  0.75139539D-13
  0.00000000D+00 -0.38398177D-12  0.00000000D+00  0.77783774D-13  0.00000000D+00
  0.00000000D+00  0.00000000D+00  0.00000000D+00 -0.22285156D-13  0.00000000D+00
 -0.27573627D-13  0.00000000D+00  0.00000000D+00  0.49858782D-14
MO    5     MO 0.0        OCC NO =    0.0001032  ORB. ENERGY =    0.000000
  0.00000000D+00  0.00000000D+00  0.00000000D+00  0.00000000D+00  0.00000000D+00
  0.00000000D+00  0.00000000D+00  0.00000000D+00  0.00000000D+00  0.00000000D+00
  0.00000000D+00  0.00000000D+00  0.00000000D+00  0.00000000D+00  0.00000000D+00
  0.00000000D+00  0.00000000D+00  0.00000000D+00  0.00000000D+00  0.00000000D+00
  0.00000000D+00  0.00000000D+00  0.00000000D+00  0.00000000D+00  0.00000000D+00
  0.00000000D+00  0.00000000D+00  0.00000000D+00  0.00000000D+00  0.83651715D+00
  0.11130031D+01  0.12588277D+01  0.11593407D+01  0.00000000D+00  0.00000000D+00
  0.00000000D+00  0.00000000D+00  0.00000000D+00  0.33503774D-01  0.00000000D+00
  0.00000000D+00 -0.49708797D-02  0.00000000D+00  0.00000000D+00  0.76441462D-03
  0.00000000D+00  0.00000000D+00 -0.93864657D-04  0.00000000D+00  0.00000000D+00
  0.20610485D+02  0.00000000D+00  0.00000000D+00  0.77127824D+02  0.00000000D+00
  0.00000000D+00  0.68399925D+02  0.00000000D+00  0.00000000D+00  0.44016058D+02
  0.00000000D+00  0.00000000D+00  0.72077167D-05  0.00000000D+00  0.00000000D+00
  0.00000000D+00  0.00000000D+00  0.00000000D+00  0.00000000D+00  0.00000000D+00
  0.00000000D+00  0.00000000D+00  0.00000000D+00  0.00000000D+00  0.00000000D+00
  0.00000000D+00  0.00000000D+00  0.00000000D+00  0.00000000D+00  0.00000000D+00
  0.00000000D+00  0.00000000D+00  0.00000000D+00  0.00000000D+00  0.00000000D+00
  0.00000000D+00  0.00000000D+00  0.00000000D+00  0.00000000D+00  0.00000000D+00
  0.00000000D+00  0.00000000D+00  0.00000000D+00  0.00000000D+00  0.00000000D+00
  0.00000000D+00  0.00000000D+00  0.00000000D+00  0.00000000D+00  0.00000000D+00
  0.00000000D+00  0.00000000D+00  0.00000000D+00  0.00000000D+00  0.00000000D+00
  0.00000000D+00  0.00000000D+00  0.00000000D+00  0.00000000D+00  0.00000000D+00
  0.00000000D+00  0.00000000D+00  0.00000000D+00 -0.15170874D-12  0.00000000D+00
  0.00000000D+00  0.31671238D-12  0.00000000D+00  0.00000000D+00  0.13841384D-12
  0.00000000D+00  0.00000000D+00  0.00000000D+00 -0.31949604D-13  0.00000000D+00
  0.00000000D+00  0.44582486D-13  0.00000000D+00  0.00000000D+00  0.51266325D-13
  0.00000000D+00  0.00000000D+00  0.00000000D+00  0.20169749D-14  0.00000000D+00
  0.00000000D+00 -0.26256293D-14  0.00000000D+00  0.00000000D+00 -0.34252953D-14
  0.00000000D+00  0.00000000D+00  0.00000000D+00  0.80997967D-12  0.00000000D+00
  0.00000000D+00 -0.19559445D-11  0.00000000D+00  0.00000000D+00 -0.47399450D-12
  0.00000000D+00  0.00000000D+00  0.00000000D+00 -0.90135866D-11  0.00000000D+00
  0.00000000D+00  0.20532018D-10  0.00000000D+00  0.00000000D+00  0.65087415D-11
  0.00000000D+00  0.00000000D+00  0.00000000D+00 -0.46158265D-16  0.00000000D+00
  0.00000000D+00  0.12767765D-15  0.00000000D+00  0.00000000D+00  0.10797149D-16
  0.00000000D+00  0.00000000D+00  0.00000000D+00  0.00000000D+00  0.00000000D+00
  0.00000000D+00  0.00000000D+00  0.00000000D+00  0.00000000D+00  0.00000000D+00
  0.00000000D+00  0.00000000D+00  0.00000000D+00  0.00000000D+00  0.00000000D+00
  0.00000000D+00  0.00000000D+00  0.00000000D+00  0.00000000D+00  0.00000000D+00
  0.00000000D+00  0.00000000D+00  0.00000000D+00  0.00000000D+00  0.00000000D+00
  0.00000000D+00  0.00000000D+00  0.00000000D+00  0.00000000D+00  0.00000000D+00
  0.00000000D+00  0.00000000D+00  0.00000000D+00  0.00000000D+00  0.00000000D+00
  0.00000000D+00  0.00000000D+00  0.00000000D+00  0.00000000D+00  0.00000000D+00
  0.00000000D+00  0.00000000D+00  0.00000000D+00  0.00000000D+00  0.00000000D+00
  0.00000000D+00  0.00000000D+00  0.00000000D+00  0.00000000D+00  0.00000000D+00
  0.00000000D+00  0.00000000D+00  0.00000000D+00  0.00000000D+00  0.00000000D+00
  0.00000000D+00  0.00000000D+00  0.00000000D+00  0.00000000D+00  0.00000000D+00
  0.00000000D+00  0.00000000D+00  0.00000000D+00 -0.98126576D-12  0.00000000D+00
  0.38881516D-12  0.00000000D+00 -0.79229918D-13  0.00000000D+00  0.00000000D+00
  0.00000000D+00  0.00000000D+00  0.00000000D+00  0.00000000D+00  0.47211491D-11
  0.00000000D+00  0.40348402D-12  0.00000000D+00  0.00000000D+00  0.00000000D+00
  0.00000000D+00 -0.98860020D-12  0.00000000D+00  0.00000000D+00  0.76754687D-13
  0.00000000D+00 -0.23992691D-13  0.00000000D+00  0.52141660D-14  0.00000000D+00
  0.00000000D+00  0.00000000D+00  0.00000000D+00  0.00000000D+00  0.00000000D+00
 -0.38855005D-12  0.00000000D+00 -0.28148969D-13  0.00000000D+00  0.00000000D+00
  0.00000000D+00  0.00000000D+00  0.78832826D-13  0.00000000D+00
MO    6     MO 0.0        OCC NO =    0.0000046  ORB. ENERGY =    0.000000
  0.74621990D+00  0.13632347D+01  0.23563096D+01  0.38270196D+01  0.58619075D+01
  0.82168428D+01  0.10176111D+02  0.98366080D+01  0.57373963D+01  0.10278955D-01
  0.44801878D-01  0.25255813D+00  0.75953997D+00  0.21197428D+01  0.40617907D+01
  0.46405836D+01  0.55429153D+00  0.10687863D-01 -0.32376576D-02  0.71170336D-03
 -0.14369403D+02 -0.26546866D+02  0.34473625D+01  0.17563660D+02 -0.78702477D-04
  0.00000000D+00  0.00000000D+00  0.00000000D+00  0.00000000D+00  0.00000000D+00