 Title Card Required
GAUSSIAN            165 MOL ORBITALS    274 PRIMITIVES        1 NUCLEI
  O    1    (CENTRE  1)   0.00000000  0.00000000  0.00000000  CHARGE =  8.0
CENTRE ASSIGNMENTS    1  1  1  1  1  1  1  1  1  1  1  1  1  1  1  1  1  1  1  1
CENTRE ASSIGNMENTS    1  1  1  1  1  1  1  1  1  1  1  1  1  1  1  1  1  1  1  1
CENTRE ASSIGNMENTS    1  1  1  1  1  1  1  1  1  1  1  1  1  1  1  1  1  1  1  1
CENTRE ASSIGNMENTS    1  1  1  1  1  1  1  1  1  1  1  1  1  1  1  1  1  1  1  1
CENTRE ASSIGNMENTS    1  1  1  1  1  1  1  1  1  1  1  1  1  1  1  1  1  1  1  1
CENTRE ASSIGNMENTS    1  1  1  1  1  1  1  1  1  1  1  1  1  1  1  1  1  1  1  1
CENTRE ASSIGNMENTS    1  1  1  1  1  1  1  1  1  1  1  1  1  1  1  1  1  1  1  1
CENTRE ASSIGNMENTS    1  1  1  1  1  1  1  1  1  1  1  1  1  1  1  1  1  1  1  1
CENTRE ASSIGNMENTS    1  1  1  1  1  1  1  1  1  1  1  1  1  1  1  1  1  1  1  1
CENTRE ASSIGNMENTS    1  1  1  1  1  1  1  1  1  1  1  1  1  1  1  1  1  1  1  1
CENTRE ASSIGNMENTS    1  1  1  1  1  1  1  1  1  1  1  1  1  1  1  1  1  1  1  1
CENTRE ASSIGNMENTS    1  1  1  1  1  1  1  1  1  1  1  1  1  1  1  1  1  1  1  1
CENTRE ASSIGNMENTS    1  1  1  1  1  1  1  1  1  1  1  1  1  1  1  1  1  1  1  1
CENTRE ASSIGNMENTS    1  1  1  1  1  1  1  1  1  1  1  1  1  1
TYPE ASSIGNMENTS      1  1  1  1  1  1  1  1  1  1  1  1  1  1  1  1  1  1  1  1
TYPE ASSIGNMENTS      1  1  1  1  1  2  2  2  2  3  3  3  3  4  4  4  4  2  3  4
TYPE ASSIGNMENTS      2  3  4  2  3  4  2  3  4  2  3  4  2  3  4  2  3  4  2  3
TYPE ASSIGNMENTS      4  2  3  4  5  6  7  8  9 10  5  6  7  8  9 10  5  6  7  8
TYPE ASSIGNMENTS      9 10  5  6  7  8  9 10  5  6  7  8  9 10  5  6  7  8  9 10
TYPE ASSIGNMENTS      5  6  7  8  9 10  5  6  7  8  9 10 11 12 13 17 14 15 18 19
TYPE ASSIGNMENTS     16 20 11 12 13 17 14 15 18 19 16 20 11 12 13 17 14 15 18 19
TYPE ASSIGNMENTS     16 20 11 12 13 17 14 15 18 19 16 20 11 12 13 17 14 15 18 19
TYPE ASSIGNMENTS     16 20 11 12 13 17 14 15 18 19 16 20 23 29 32 27 22 28 35 34
TYPE ASSIGNMENTS     26 31 33 30 25 24 21 23 29 32 27 22 28 35 34 26 31 33 30 25
TYPE ASSIGNMENTS     24 21 23 29 32 27 22 28 35 34 26 31 33 30 25 24 21 23 29 32
TYPE ASSIGNMENTS     27 22 28 35 34 26 31 33 30 25 24 21 36 37 38 39 40 41 42 43
TYPE ASSIGNMENTS     44 45 46 47 48 49 50 51 52 53 54 55 56 36 37 38 39 40 41 42
TYPE ASSIGNMENTS     43 44 45 46 47 48 49 50 51 52 53 54 55 56
EXPONENTS  0.1642000D+06 0.2459000D+05 0.5592000D+04 0.1582000D+04 0.5161000D+03
EXPONENTS  0.1872000D+03 0.7393000D+02 0.3122000D+02 0.1381000D+02 0.1582000D+04
EXPONENTS  0.5161000D+03 0.1872000D+03 0.7393000D+02 0.3122000D+02 0.1381000D+02
EXPONENTS  0.6256000D+01 0.2776000D+01 0.1138000D+01 0.4600000D+00 0.1829000D+00
EXPONENTS  0.1294100D+02 0.2820000D+02 0.6144900D+02 0.1339000D+03 0.6550000D-01
EXPONENTS  0.1955000D+03 0.4616000D+02 0.1458000D+02 0.5296000D+01 0.1955000D+03
EXPONENTS  0.4616000D+02 0.1458000D+02 0.5296000D+01 0.1955000D+03 0.4616000D+02
EXPONENTS  0.1458000D+02 0.5296000D+01 0.2094000D+01 0.2094000D+01 0.2094000D+01
EXPONENTS  0.8471000D+00 0.8471000D+00 0.8471000D+00 0.3368000D+00 0.3368000D+00
EXPONENTS  0.3368000D+00 0.1285000D+00 0.1285000D+00 0.1285000D+00 0.1156000D+02
EXPONENTS  0.1156000D+02 0.1156000D+02 0.2832100D+02 0.2832100D+02 0.2832100D+02
EXPONENTS  0.6938700D+02 0.6938700D+02 0.6938700D+02 0.1699980D+03 0.1699980D+03
EXPONENTS  0.1699980D+03 0.4460000D-01 0.4460000D-01 0.4460000D-01 0.5879000D+01
EXPONENTS  0.5879000D+01 0.5879000D+01 0.5879000D+01 0.5879000D+01 0.5879000D+01
EXPONENTS  0.2307000D+01 0.2307000D+01 0.2307000D+01 0.2307000D+01 0.2307000D+01
EXPONENTS  0.2307000D+01 0.9050000D+00 0.9050000D+00 0.9050000D+00 0.9050000D+00
EXPONENTS  0.9050000D+00 0.9050000D+00 0.3550000D+00 0.3550000D+00 0.3550000D+00
EXPONENTS  0.3550000D+00 0.3550000D+00 0.3550000D+00 0.1400800D+02 0.1400800D+02
EXPONENTS  0.1400800D+02 0.1400800D+02 0.1400800D+02 0.1400800D+02 0.3724500D+02
EXPONENTS  0.3724500D+02 0.3724500D+02 0.3724500D+02 0.3724500D+02 0.3724500D+02
EXPONENTS  0.9902600D+02 0.9902600D+02 0.9902600D+02 0.9902600D+02 0.9902600D+02
EXPONENTS  0.9902600D+02 0.1310000D+00 0.1310000D+00 0.1310000D+00 0.1310000D+00
EXPONENTS  0.1310000D+00 0.1310000D+00 0.4016000D+01 0.4016000D+01 0.4016000D+01
EXPONENTS  0.4016000D+01 0.4016000D+01 0.4016000D+01 0.4016000D+01 0.4016000D+01
EXPONENTS  0.4016000D+01 0.4016000D+01 0.1554000D+01 0.1554000D+01 0.1554000D+01
EXPONENTS  0.1554000D+01 0.1554000D+01 0.1554000D+01 0.1554000D+01 0.1554000D+01
EXPONENTS  0.1554000D+01 0.1554000D+01 0.6010000D+00 0.6010000D+00 0.6010000D+00
EXPONENTS  0.6010000D+00 0.6010000D+00 0.6010000D+00 0.6010000D+00 0.6010000D+00
EXPONENTS  0.6010000D+00 0.6010000D+00 0.1265300D+02 0.1265300D+02 0.1265300D+02
EXPONENTS  0.1265300D+02 0.1265300D+02 0.1265300D+02 0.1265300D+02 0.1265300D+02
EXPONENTS  0.1265300D+02 0.1265300D+02 0.3873700D+02 0.3873700D+02 0.3873700D+02
EXPONENTS  0.3873700D+02 0.3873700D+02 0.3873700D+02 0.3873700D+02 0.3873700D+02
EXPONENTS  0.3873700D+02 0.3873700D+02 0.2370000D+00 0.2370000D+00 0.2370000D+00
EXPONENTS  0.2370000D+00 0.2370000D+00 0.2370000D+00 0.2370000D+00 0.2370000D+00
EXPONENTS  0.2370000D+00 0.2370000D+00 0.3350000D+01 0.3350000D+01 0.3350000D+01
EXPONENTS  0.3350000D+01 0.3350000D+01 0.3350000D+01 0.3350000D+01 0.3350000D+01
EXPONENTS  0.3350000D+01 0.3350000D+01 0.3350000D+01 0.3350000D+01 0.3350000D+01
EXPONENTS  0.3350000D+01 0.3350000D+01 0.1189000D+01 0.1189000D+01 0.1189000D+01
EXPONENTS  0.1189000D+01 0.1189000D+01 0.1189000D+01 0.1189000D+01 0.1189000D+01
EXPONENTS  0.1189000D+01 0.1189000D+01 0.1189000D+01 0.1189000D+01 0.1189000D+01
EXPONENTS  0.1189000D+01 0.1189000D+01 0.1488600D+02 0.1488600D+02 0.1488600D+02
EXPONENTS  0.1488600D+02 0.1488600D+02 0.1488600D+02 0.1488600D+02 0.1488600D+02
EXPONENTS  0.1488600D+02 0.1488600D+02 0.1488600D+02 0.1488600D+02 0.1488600D+02
EXPONENTS  0.1488600D+02 0.1488600D+02 0.5170000D+00 0.5170000D+00 0.5170000D+00
EXPONENTS  0.5170000D+00 0.5170000D+00 0.5170000D+00 0.5170000D+00 0.5170000D+00
EXPONENTS  0.5170000D+00 0.5170000D+00 0.5170000D+00 0.5170000D+00 0.5170000D+00
EXPONENTS  0.5170000D+00 0.5170000D+00 0.2319000D+01 0.2319000D+01 0.2319000D+01
EXPONENTS  0.2319000D+01 0.2319000D+01 0.2319000D+01 0.2319000D+01 0.2319000D+01
EXPONENTS  0.2319000D+01 0.2319000D+01 0.2319000D+01 0.2319000D+01 0.2319000D+01
EXPONENTS  0.2319000D+01 0.2319000D+01 0.2319000D+01 0.2319000D+01 0.2319000D+01
EXPONENTS  0.2319000D+01 0.2319000D+01 0.2319000D+01 0.1024000D+01 0.1024000D+01
EXPONENTS  0.1024000D+01 0.1024000D+01 0.1024000D+01 0.1024000D+01 0.1024000D+01
EXPONENTS  0.1024000D+01 0.1024000D+01 0.1024000D+01 0.1024000D+01 0.1024000D+01
EXPONENTS  0.1024000D+01 0.1024000D+01 0.1024000D+01 0.1024000D+01 0.1024000D+01
EXPONENTS  0.1024000D+01 0.1024000D+01 0.1024000D+01 0.1024000D+01
MO    1     MO 0.0        OCC NO =    1.9991010  ORB. ENERGY =    0.000000
  0.15029094D+00  0.29132252D+00  0.49964821D+00  0.81124777D+00  0.12434722D+01
  0.17381064D+01  0.21343670D+01  0.20421876D+01  0.12193767D+01  0.33094127D-02
  0.90503675D-02  0.45976116D-01  0.12681674D+00  0.34671711D+00  0.64848210D+00
  0.79692932D+00  0.87929883D-01 -0.96805919D-02 -0.22581995D-02 -0.34834555D-06
  0.95358920D-02  0.24626826D-02  0.58046750D-03  0.81828530D-03 -0.20140178D-05
  0.00000000D+00  0.00000000D+00  0.00000000D+00  0.00000000D+00  0.00000000D+00
  0.00000000D+00  0.00000000D+00  0.00000000D+00  0.00000000D+00  0.00000000D+00
  0.00000000D+00  0.00000000D+00  0.00000000D+00  0.00000000D+00  0.00000000D+00
  0.00000000D+00  0.00000000D+00  0.00000000D+00  0.00000000D+00  0.00000000D+00
  0.00000000D+00  0.00000000D+00  0.00000000D+00  0.00000000D+00  0.00000000D+00
  0.00000000D+00  0.00000000D+00  0.00000000D+00  0.00000000D+00  0.00000000D+00
  0.00000000D+00  0.00000000D+00  0.00000000D+00  0.00000000D+00  0.00000000D+00
  0.00000000D+00  0.00000000D+00  0.00000000D+00  0.00000000D+00 -0.95967381D-13
  0.52687323D-13  0.43280058D-13  0.16690973D-29  0.49722246D-30 -0.69925026D-16
  0.16206361D-13 -0.86027498D-14 -0.76036113D-14 -0.43000552D-30 -0.12911167D-30
  0.49496479D-15 -0.22084805D-14  0.11631682D-14  0.10453124D-14  0.77712609D-31
  0.23420488D-31  0.91348573D-16  0.22683566D-15 -0.12403530D-15 -0.10280035D-15
 -0.97573800D-32 -0.28940037D-32  0.10504414D-17  0.35504534D-12 -0.16012004D-12
 -0.19492530D-12 -0.24116904D-29 -0.71062199D-30  0.57181265D-14 -0.11570158D-11
  0.46478419D-12  0.69223161D-12 -0.53748915D-29 -0.15370981D-29 -0.59464350D-14
  0.26497839D-11 -0.87925188D-12 -0.17705320D-11  0.64792951D-29  0.41444867D-30
 -0.10070435D-12 -0.11349539D-16  0.10079271D-16  0.12702682D-17  0.57143225D-33
  0.16109208D-33 -0.32707755D-19  0.00000000D+00  0.00000000D+00  0.00000000D+00
  0.00000000D+00  0.00000000D+00  0.00000000D+00  0.00000000D+00  0.00000000D+00
  0.00000000D+00  0.00000000D+00  0.00000000D+00  0.00000000D+00  0.00000000D+00
  0.00000000D+00  0.00000000D+00  0.00000000D+00  0.00000000D+00  0.00000000D+00
  0.00000000D+00  0.00000000D+00  0.00000000D+00  0.00000000D+00  0.00000000D+00
  0.00000000D+00  0.00000000D+00  0.00000000D+00  0.00000000D+00  0.00000000D+00
  0.00000000D+00  0.00000000D+00  0.00000000D+00  0.00000000D+00  0.00000000D+00
  0.00000000D+00  0.00000000D+00  0.00000000D+00  0.00000000D+00  0.00000000D+00
  0.00000000D+00  0.00000000D+00  0.00000000D+00  0.00000000D+00  0.00000000D+00
  0.00000000D+00  0.00000000D+00  0.00000000D+00  0.00000000D+00  0.00000000D+00
  0.00000000D+00  0.00000000D+00  0.00000000D+00  0.00000000D+00  0.00000000D+00
  0.00000000D+00  0.00000000D+00  0.00000000D+00  0.00000000D+00  0.00000000D+00
  0.00000000D+00  0.00000000D+00  0.13303031D-13 -0.22947566D-13 -0.43979479D-13
  0.24366329D-13  0.14226196D-13  0.96972270D-32 -0.73121350D-31 -0.26458877D-31
 -0.97763659D-31 -0.35838706D-13 -0.42562875D-14 -0.41377695D-13 -0.87760121D-33
  0.12213744D-30  0.12869400D-13  0.15035198D-14 -0.19035790D-15 -0.35077483D-14
  0.20177039D-15  0.12625584D-14  0.19293754D-31  0.12114004D-31  0.42316649D-32
 -0.11500355D-30 -0.55133704D-14 -0.34237494D-16 -0.40676018D-14 -0.20704309D-31
  0.11096555D-30  0.15968287D-14 -0.21572256D-12  0.13191197D-11  0.72599538D-12
 -0.14005380D-11 -0.35078248D-12 -0.27520482D-28 -0.14857939D-29 -0.81329293D-30
  0.14574810D-27  0.56834000D-12  0.24425487D-12  0.13786995D-11  0.27791579D-28
 -0.14525283D-27 -0.32450658D-12 -0.18743710D-15  0.10765448D-15  0.53324243D-15
 -0.11426997D-15 -0.17572170D-15 -0.12294234D-32  0.91567191D-33  0.33891766D-33
  0.81540735D-32  0.59138017D-15  0.19846471D-16  0.52108776D-15  0.11164509D-32
 -0.84592975D-32 -0.18541132D-15  0.00000000D+00  0.00000000D+00  0.00000000D+00
  0.00000000D+00  0.00000000D+00  0.00000000D+00  0.00000000D+00  0.00000000D+00
  0.00000000D+00  0.00000000D+00  0.00000000D+00  0.00000000D+00  0.00000000D+00
  0.00000000D+00  0.00000000D+00  0.00000000D+00  0.00000000D+00  0.00000000D+00
  0.00000000D+00  0.00000000D+00  0.00000000D+00  0.00000000D+00  0.00000000D+00
  0.00000000D+00  0.00000000D+00  0.00000000D+00  0.00000000D+00  0.00000000D+00
  0.00000000D+00  0.00000000D+00  0.00000000D+00  0.00000000D+00  0.00000000D+00
  0.00000000D+00  0.00000000D+00  0.00000000D+00  0.00000000D+00  0.00000000D+00
  0.00000000D+00  0.00000000D+00  0.00000000D+00  0.00000000D+00
MO    2     MO 0.0        OCC NO =    1.8719312  ORB. ENERGY =    0.000000
 -0.39382234D-01 -0.76338149D-01 -0.13092781D+00 -0.21257935D+00 -0.32583942D+00
 -0.45545337D+00 -0.55928949D+00 -0.53513480D+00 -0.31952544D+00 -0.22136917D-02
 -0.60538606D-02 -0.30753778D-01 -0.84828696D-01 -0.23192175D+00 -0.43377467D+00
 -0.53307217D+00  0.66478183D-01  0.55152451D+00  0.16387059D+00 -0.37366837D-02
 -0.70835910D-02  0.74774022D-02 -0.94055544D-03  0.15033950D-02  0.55825677D-03
  0.00000000D+00  0.00000000D+00  0.00000000D+00  0.00000000D+00  0.00000000D+00
  0.00000000D+00  0.00000000D+00  0.00000000D+00  0.00000000D+00  0.00000000D+00
  0.00000000D+00  0.00000000D+00  0.00000000D+00  0.00000000D+00  0.00000000D+00
  0.00000000D+00  0.00000000D+00  0.00000000D+00  0.00000000D+00  0.00000000D+00
  0.00000000D+00  0.00000000D+00  0.00000000D+00  0.00000000D+00  0.00000000D+00
  0.00000000D+00  0.00000000D+00  0.00000000D+00  0.00000000D+00  0.00000000D+00
  0.00000000D+00  0.00000000D+00  0.00000000D+00  0.00000000D+00  0.00000000D+00
  0.00000000D+00  0.00000000D+00  0.00000000D+00  0.00000000D+00 -0.18830457D-13
 -0.33239723D-13  0.52070180D-13 -0.32932717D-30 -0.79662038D-31  0.39851676D-15
  0.44828590D-14 -0.20666428D-13  0.16183569D-13 -0.17022686D-31 -0.68702669D-32
 -0.24640111D-15 -0.15400439D-15 -0.44967966D-14  0.46508010D-14  0.91962413D-31
  0.27158239D-31 -0.11605040D-15 -0.24748395D-16 -0.45626761D-16  0.70375155D-16
 -0.33028734D-31 -0.97315547D-32 -0.56125054D-17  0.34273055D-13  0.53796909D-13
 -0.88069964D-13  0.17609115D-29  0.46894150D-30 -0.35522920D-14 -0.81229590D-13
 -0.13031497D-12  0.21154456D-12 -0.91197055D-29 -0.24596034D-29  0.14293876D-13
  0.17850427D-12  0.15608827D-13 -0.19411310D-12  0.30220155D-28  0.78094524D-29
  0.13451147D-12  0.17840893D-17 -0.10571583D-17 -0.72693101D-18  0.38096569D-32
  0.11422498D-32  0.12531799D-18  0.00000000D+00  0.00000000D+00  0.00000000D+00
  0.00000000D+00  0.00000000D+00  0.00000000D+00  0.00000000D+00  0.00000000D+00
  0.00000000D+00  0.00000000D+00  0.00000000D+00  0.00000000D+00  0.00000000D+00
  0.00000000D+00  0.00000000D+00  0.00000000D+00  0.00000000D+00  0.00000000D+00
  0.00000000D+00  0.00000000D+00  0.00000000D+00  0.00000000D+00  0.00000000D+00
  0.00000000D+00  0.00000000D+00  0.00000000D+00  0.00000000D+00  0.00000000D+00
  0.00000000D+00  0.00000000D+00  0.00000000D+00  0.00000000D+00  0.00000000D+00
  0.00000000D+00  0.00000000D+00  0.00000000D+00  0.00000000D+00  0.00000000D+00
  0.00000000D+00  0.00000000D+00  0.00000000D+00  0.00000000D+00  0.00000000D+00
  0.00000000D+00  0.00000000D+00  0.00000000D+00  0.00000000D+00  0.00000000D+00
  0.00000000D+00  0.00000000D+00  0.00000000D+00  0.00000000D+00  0.00000000D+00
  0.00000000D+00  0.00000000D+00  0.00000000D+00  0.00000000D+00  0.00000000D+00
  0.00000000D+00  0.00000000D+00 -0.54641927D-13  0.47168032D-13  0.15535308D-12
 -0.38137557D-13 -0.51133282D-13  0.10808422D-30 -0.39716599D-30 -0.14760063D-30
 -0.10706998D-29  0.17249849D-12 -0.27091424D-13  0.15144662D-12 -0.58884005D-31
  0.12030885D-29 -0.53990850D-13  0.63284337D-14  0.39140334D-15 -0.18146213D-13
 -0.31632295D-15  0.61750142D-14  0.17802848D-31 -0.18020823D-31 -0.67177098D-32
 -0.12552605D-30 -0.19824389D-13 -0.22524119D-15 -0.18903872D-13 -0.15563612D-31
  0.13153299D-30  0.64547101D-14 -0.29368493D-12 -0.27114603D-11  0.81672688D-12
  0.21922863D-11 -0.31200811D-12 -0.27686490D-28  0.17880308D-28  0.90444796D-29
  0.31445042D-27  0.94538268D-12  0.15575222D-11  0.10553218D-11  0.24671663D-28
 -0.32041052D-27 -0.33345074D-12  0.20360711D-14 -0.22129504D-15 -0.61866563D-14
  0.17891097D-15  0.20725219D-14 -0.10478365D-31 -0.83940465D-32 -0.30725206D-32
  0.54972614D-31 -0.60297702D-14  0.12715222D-15 -0.62484750D-14  0.11502539D-31
 -0.52174599D-31  0.20463742D-14  0.00000000D+00  0.00000000D+00  0.00000000D+00
  0.00000000D+00  0.00000000D+00  0.00000000D+00  0.00000000D+00  0.00000000D+00
  0.00000000D+00  0.00000000D+00  0.00000000D+00  0.00000000D+00  0.00000000D+00
  0.00000000D+00  0.00000000D+00  0.00000000D+00  0.00000000D+00  0.00000000D+00
  0.00000000D+00  0.00000000D+00  0.00000000D+00  0.00000000D+00  0.00000000D+00
  0.00000000D+00  0.00000000D+00  0.00000000D+00  0.00000000D+00  0.00000000D+00
  0.00000000D+00  0.00000000D+00  0.00000000D+00  0.00000000D+00  0.00000000D+00
  0.00000000D+00  0.00000000D+00  0.00000000D+00  0.00000000D+00  0.00000000D+00
  0.00000000D+00  0.00000000D+00  0.00000000D+00  0.00000000D+00
MO    3     MO 0.0        OCC NO =    0.0424609  ORB. ENERGY =    0.000000
  0.00000000D+00  0.00000000D+00  0.00000000D+00  0.00000000D+00  0.00000000D+00
  0.00000000D+00  0.00000000D+00  0.00000000D+00  0.00000000D+00  0.00000000D+00
  0.00000000D+00  0.00000000D+00  0.00000000D+00  0.00000000D+00  0.00000000D+00
  0.00000000D+00  0.00000000D+00  0.00000000D+00  0.00000000D+00  0.00000000D+00
  0.00000000D+00  0.00000000D+00  0.00000000D+00  0.00000000D+00  0.00000000D+00
  0.00000000D+00  0.00000000D+00  0.00000000D+00  0.00000000D+00  0.00000000D+00
  0.00000000D+00  0.00000000D+00  0.00000000D+00  0.11273990D+01  0.14933468D+01
  0.16731890D+01  0.15579695D+01  0.00000000D+00  0.00000000D+00  0.16461179D+01
  0.00000000D+00  0.00000000D+00  0.53660876D+00  0.00000000D+00  0.00000000D+00
  0.13202376D-01  0.00000000D+00  0.00000000D+00  0.25479927D-03  0.00000000D+00
  0.00000000D+00  0.13917303D+00  0.00000000D+00  0.00000000D+00  0.12290383D+00
  0.00000000D+00  0.00000000D+00  0.20751793D+00  0.00000000D+00  0.00000000D+00
  0.83981788D-01  0.00000000D+00  0.00000000D+00 -0.29178754D-04  0.00000000D+00
  0.00000000D+00  0.00000000D+00  0.00000000D+00  0.00000000D+00  0.00000000D+00
  0.00000000D+00  0.00000000D+00  0.00000000D+00  0.00000000D+00  0.00000000D+00
  0.00000000D+00  0.00000000D+00  0.00000000D+00  0.00000000D+00  0.00000000D+00
  0.00000000D+00  0.00000000D+00  0.00000000D+00  0.00000000D+00  0.00000000D+00
  0.00000000D+00  0.00000000D+00  0.00000000D+00  0.00000000D+00  0.00000000D+00
  0.00000000D+00  0.00000000D+00  0.00000000D+00  0.00000000D+00  0.00000000D+00
  0.00000000D+00  0.00000000D+00  0.00000000D+00  0.00000000D+00  0.00000000D+00
  0.00000000D+00  0.00000000D+00  0.00000000D+00  0.00000000D+00  0.00000000D+00
  0.00000000D+00  0.00000000D+00  0.00000000D+00  0.00000000D+00  0.00000000D+00
  0.00000000D+00  0.00000000D+00  0.00000000D+00  0.00000000D+00 -0.44919489D-12
  0.00000000D+00  0.00000000D+00  0.54221927D-12  0.00000000D+00  0.00000000D+00
  0.80536541D-12  0.00000000D+00  0.00000000D+00  0.00000000D+00  0.15784085D-12
  0.00000000D+00  0.00000000D+00 -0.25991426D-12  0.00000000D+00  0.00000000D+00
 -0.21360828D-12  0.00000000D+00  0.00000000D+00  0.00000000D+00 -0.61655476D-13
  0.00000000D+00  0.00000000D+00  0.91941532D-13  0.00000000D+00  0.00000000D+00
  0.93024895D-13  0.00000000D+00  0.00000000D+00  0.00000000D+00  0.24589216D-12
  0.00000000D+00  0.00000000D+00 -0.60863060D-12  0.00000000D+00  0.00000000D+00
 -0.12904586D-12  0.00000000D+00  0.00000000D+00  0.00000000D+00  0.24990477D-11
  0.00000000D+00  0.00000000D+00 -0.17007518D-11  0.00000000D+00  0.00000000D+00
 -0.57963914D-11  0.00000000D+00  0.00000000D+00  0.00000000D+00  0.94745988D-15
  0.00000000D+00  0.00000000D+00 -0.14372351D-14  0.00000000D+00  0.00000000D+00
 -0.14051445D-14  0.00000000D+00  0.00000000D+00  0.00000000D+00  0.00000000D+00
  0.00000000D+00  0.00000000D+00  0.00000000D+00  0.00000000D+00  0.00000000D+00
  0.00000000D+00  0.00000000D+00  0.00000000D+00  0.00000000D+00  0.00000000D+00
  0.00000000D+00  0.00000000D+00  0.00000000D+00  0.00000000D+00  0.00000000D+00
  0.00000000D+00  0.00000000D+00  0.00000000D+00  0.00000000D+00  0.00000000D+00
  0.00000000D+00  0.00000000D+00  0.00000000D+00  0.00000000D+00  0.00000000D+00
  0.00000000D+00  0.00000000D+00  0.00000000D+00  0.00000000D+00  0.00000000D+00
  0.00000000D+00  0.00000000D+00  0.00000000D+00  0.00000000D+00  0.00000000D+00
  0.00000000D+00  0.00000000D+00  0.00000000D+00  0.00000000D+00  0.00000000D+00
  0.00000000D+00  0.00000000D+00  0.00000000D+00  0.00000000D+00  0.00000000D+00
  0.00000000D+00  0.00000000D+00  0.00000000D+00  0.00000000D+00  0.00000000D+00
  0.00000000D+00  0.00000000D+00  0.00000000D+00  0.00000000D+00  0.00000000D+00
  0.00000000D+00  0.00000000D+00  0.25890712D-12  0.00000000D+00 -0.12847676D-11
  0.00000000D+00  0.77365097D-12  0.00000000D+00  0.00000000D+00  0.00000000D+00
  0.00000000D+00  0.00000000D+00  0.00000000D+00 -0.13043036D-11  0.00000000D+00
 -0.78760310D-12  0.00000000D+00  0.00000000D+00  0.00000000D+00  0.00000000D+00
  0.78341898D-12  0.00000000D+00  0.00000000D+00 -0.56756245D-13  0.00000000D+00
  0.28375090D-12  0.00000000D+00 -0.12980824D-12  0.00000000D+00  0.00000000D+00
  0.00000000D+00  0.00000000D+00  0.00000000D+00  0.00000000D+00  0.28381155D-12
  0.00000000D+00 -0.72403288D-13  0.00000000D+00  0.00000000D+00  0.00000000D+00
  0.00000000D+00 -0.12983856D-12  0.00000000D+00  0.00000000D+00
MO    4     MO 0.0        OCC NO =    0.0424609  ORB. ENERGY =    0.000000
  0.00000000D+00  0.00000000D+00  0.00000000D+00  0.00000000D+00  0.00000000D+00
  0.00000000D+00  0.00000000D+00  0.00000000D+00  0.00000000D+00  0.00000000D+00
  0.00000000D+00  0.00000000D+00  0.00000000D+00  0.00000000D+00  0.00000000D+00
  0.00000000D+00  0.00000000D+00  0.00000000D+00  0.00000000D+00  0.00000000D+00
  0.00000000D+00  0.00000000D+00  0.00000000D+00  0.00000000D+00  0.00000000D+00
  0.11273990D+01  0.14933468D+01  0.16731890D+01  0.15579695D+01  0.00000000D+00
  0.00000000D+00  0.00000000D+00  0.00000000D+00  0.00000000D+00  0.00000000D+00
  0.00000000D+00  0.00000000D+00  0.16461179D+01  0.00000000D+00  0.00000000D+00
  0.53660876D+00  0.00000000D+00  0.00000000D+00  0.13202376D-01  0.00000000D+00
  0.00000000D+00  0.25479927D-03  0.00000000D+00  0.00000000D+00  0.13917303D+00
  0.00000000D+00  0.00000000D+00  0.12290383D+00  0.00000000D+00  0.00000000D+00
  0.20751793D+00  0.00000000D+00  0.00000000D+00  0.83981788D-01  0.00000000D+00
  0.00000000D+00 -0.29178754D-04  0.00000000D+00  0.00000000D+00  0.00000000D+00
  0.00000000D+00  0.00000000D+00  0.00000000D+00  0.00000000D+00  0.00000000D+00
  0.00000000D+00  0.00000000D+00  0.00000000D+00  0.00000000D+00  0.00000000D+00
  0.00000000D+00  0.00000000D+00  0.00000000D+00  0.00000000D+00  0.00000000D+00
  0.00000000D+00  0.00000000D+00  0.00000000D+00  0.00000000D+00  0.00000000D+00
  0.00000000D+00  0.00000000D+00  0.00000000D+00  0.00000000D+00  0.00000000D+00
  0.00000000D+00  0.00000000D+00  0.00000000D+00  0.00000000D+00  0.00000000D+00
  0.00000000D+00  0.00000000D+00  0.00000000D+00  0.00000000D+00  0.00000000D+00
  0.00000000D+00  0.00000000D+00  0.00000000D+00  0.00000000D+00  0.00000000D+00
  0.00000000D+00  0.00000000D+00  0.00000000D+00  0.00000000D+00  0.00000000D+00
  0.00000000D+00  0.00000000D+00 -0.30882491D-12  0.00000000D+00  0.00000000D+00
  0.70145109D-12  0.00000000D+00  0.00000000D+00  0.22502365D-12  0.00000000D+00
  0.00000000D+00  0.00000000D+00  0.18249376D-12  0.00000000D+00  0.00000000D+00
 -0.23051940D-12  0.00000000D+00  0.00000000D+00 -0.31696187D-12  0.00000000D+00
  0.00000000D+00  0.00000000D+00 -0.61156945D-13  0.00000000D+00  0.00000000D+00
  0.92829566D-13  0.00000000D+00  0.00000000D+00  0.90641268D-13  0.00000000D+00
  0.00000000D+00  0.00000000D+00  0.30868421D-12  0.00000000D+00  0.00000000D+00
 -0.15475415D-12  0.00000000D+00  0.00000000D+00 -0.77129849D-12  0.00000000D+00
  0.00000000D+00  0.00000000D+00  0.31265024D-11  0.00000000D+00  0.00000000D+00
 -0.43931630D-11  0.00000000D+00  0.00000000D+00 -0.49863441D-11  0.00000000D+00
  0.00000000D+00  0.00000000D+00  0.93012931D-15  0.00000000D+00  0.00000000D+00
 -0.14328060D-14  0.00000000D+00  0.00000000D+00 -0.13575819D-14  0.00000000D+00
  0.00000000D+00  0.00000000D+00  0.00000000D+00  0.00000000D+00  0.00000000D+00
  0.00000000D+00  0.00000000D+00  0.00000000D+00  0.00000000D+00  0.00000000D+00
  0.00000000D+00  0.00000000D+00  0.00000000D+00  0.00000000D+00  0.00000000D+00
  0.00000000D+00  0.00000000D+00  0.00000000D+00  0.00000000D+00  0.00000000D+00
  0.00000000D+00  0.00000000D+00  0.00000000D+00  0.00000000D+00  0.00000000D+00
  0.00000000D+00  0.00000000D+00  0.00000000D+00  0.00000000D+00  0.00000000D+00
  0.00000000D+00  0.00000000D+00  0.00000000D+00  0.00000000D+00  0.00000000D+00
  0.00000000D+00  0.00000000D+00  0.00000000D+00  0.00000000D+00  0.00000000D+00
  0.00000000D+00  0.00000000D+00  0.00000000D+00  0.00000000D+00  0.00000000D+00
  0.00000000D+00  0.00000000D+00  0.00000000D+00  0.00000000D+00  0.00000000D+00
  0.00000000D+00  0.00000000D+00  0.00000000D+00  0.00000000D+00  0.00000000D+00
  0.00000000D+00  0.00000000D+00  0.00000000D+00  0.00000000D+00  0.00000000D+00
  0.00000000D+00  0.00000000D+00  0.00000000D+00  0.00000000D+00  0.00000000D+00
  0.00000000D+00  0.00000000D+00  0.00000000D+00  0.78132821D-12  0.00000000D+00
 -0.81710495D-12  0.00000000D+00  0.77431407D-12  0.00000000D+00  0.00000000D+00
  0.00000000D+00  0.00000000D+00 -0.12902881D-11  0.00000000D+00 -0.12762598D-11
  0.00000000D+00  0.00000000D+00  0.25665479D-12  0.00000000D+00  0.00000000D+00
  0.00000000D+00  0.00000000D+00  0.00000000D+00  0.00000000D+00 -0.12936932D-12
  0.00000000D+00 -0.73477004D-13  0.00000000D+00 -0.12928197D-12  0.00000000D+00
  0.00000000D+00  0.00000000D+00  0.00000000D+00  0.28323097D-12  0.00000000D+00
  0.28305627D-12  0.00000000D+00  0.00000000D+00 -0.56628724D-13
MO    5     MO 0.0        OCC NO =    0.0424609  ORB. ENERGY =    0.000000
  0.00000000D+00  0.00000000D+00  0.00000000D+00  0.00000000D+00  0.00000000D+00
  0.00000000D+00  0.00000000D+00  0.00000000D+00  0.00000000D+00  0.00000000D+00
  0.00000000D+00  0.00000000D+00  0.00000000D+00  0.00000000D+00  0.00000000D+00
  0.00000000D+00  0.00000000D+00  0.00000000D+00  0.00000000D+00  0.00000000D+00
  0.00000000D+00  0.00000000D+00  0.00000000D+00  0.00000000D+00  0.00000000D+00
  0.00000000D+00  0.00000000D+00  0.00000000D+00  0.00000000D+00  0.11273990D+01
  0.14933468D+01  0.16731890D+01  0.15579695D+01  0.00000000D+00  0.00000000D+00
  0.00000000D+00  0.00000000D+00  0.00000000D+00  0.16461179D+01  0.00000000D+00
  0.00000000D+00  0.53660876D+00  0.00000000D+00  0.00000000D+00  0.13202376D-01
  0.00000000D+00  0.00000000D+00  0.25479927D-03  0.00000000D+00  0.00000000D+00
  0.13917303D+00  0.00000000D+00  0.00000000D+00  0.12290383D+00  0.00000000D+00
  0.00000000D+00  0.20751793D+00  0.00000000D+00  0.00000000D+00  0.83981788D-01
  0.00000000D+00  0.00000000D+00 -0.29178754D-04  0.00000000D+00  0.00000000D+00
  0.00000000D+00  0.00000000D+00  0.00000000D+00  0.00000000D+00  0.00000000D+00
  0.00000000D+00  0.00000000D+00  0.00000000D+00  0.00000000D+00  0.00000000D+00
  0.00000000D+00  0.00000000D+00  0.00000000D+00  0.00000000D+00  0.00000000D+00
  0.00000000D+00  0.00000000D+00  0.00000000D+00  0.00000000D+00  0.00000000D+00
  0.00000000D+00  0.00000000D+00  0.00000000D+00  0.00000000D+00  0.00000000D+00
  0.00000000D+00  0.00000000D+00  0.00000000D+00  0.00000000D+00  0.00000000D+00
  0.00000000D+00  0.00000000D+00  0.00000000D+00  0.00000000D+00  0.00000000D+00
  0.00000000D+00  0.00000000D+00  0.00000000D+00  0.00000000D+00  0.00000000D+00
  0.00000000D+00  0.00000000D+00  0.00000000D+00  0.00000000D+00  0.00000000D+00
  0.00000000D+00  0.00000000D+00  0.00000000D+00 -0.14397088D-12  0.00000000D+00
  0.00000000D+00  0.32200394D-12  0.00000000D+00  0.00000000D+00  0.10990872D-12
  0.00000000D+00  0.00000000D+00  0.00000000D+00  0.21267570D-12  0.00000000D+00
  0.00000000D+00 -0.30565308D-12  0.00000000D+00  0.00000000D+00 -0.33237401D-12
  0.00000000D+00  0.00000000D+00  0.00000000D+00 -0.60093606D-13  0.00000000D+00
  0.00000000D+00  0.89566029D-13  0.00000000D+00  0.00000000D+00  0.90714789D-13
  0.00000000D+00  0.00000000D+00  0.00000000D+00  0.75137716D-12  0.00000000D+00
  0.00000000D+00 -0.12535907D-11  0.00000000D+00  0.00000000D+00 -0.10005407D-11
  0.00000000D+00  0.00000000D+00  0.00000000D+00  0.36402604D-11  0.00000000D+00
  0.00000000D+00 -0.93003068D-11  0.00000000D+00  0.00000000D+00 -0.16204743D-11
  0.00000000D+00  0.00000000D+00  0.00000000D+00  0.94937004D-15  0.00000000D+00
  0.00000000D+00 -0.14791882D-14  0.00000000D+00  0.00000000D+00 -0.13689219D-14
  0.00000000D+00  0.00000000D+00  0.00000000D+00  0.00000000D+00  0.00000000D+00
  0.00000000D+00  0.00000000D+00  0.00000000D+00  0.00000000D+00  0.00000000D+00
  0.00000000D+00  0.00000000D+00  0.00000000D+00  0.00000000D+00  0.00000000D+00
  0.00000000D+00  0.00000000D+00  0.00000000D+00  0.00000000D+00  0.00000000D+00
  0.00000000D+00  0.00000000D+00  0.00000000D+00  0.00000000D+00  0.00000000D+00
  0.00000000D+00  0.00000000D+00  0.00000000D+00  0.00000000D+00  0.00000000D+00
  0.00000000D+00  0.00000000D+00  0.00000000D+00  0.00000000D+00  0.00000000D+00
  0.00000000D+00  0.00000000D+00  0.00000000D+00  0.00000000D+00  0.00000000D+00
  0.00000000D+00  0.00000000D+00  0.00000000D+00  0.00000000D+00  0.00000000D+00
  0.00000000D+00  0.00000000D+00  0.00000000D+00  0.00000000D+00  0.00000000D+00
  0.00000000D+00  0.00000000D+00  0.00000000D+00  0.00000000D+00  0.00000000D+00
  0.00000000D+00  0.00000000D+00  0.00000000D+00  0.00000000D+00  0.00000000D+00
  0.00000000D+00  0.00000000D+00  0.00000000D+00  0.77739201D-12  0.00000000D+00
 -0.12845396D-11  0.00000000D+00  0.25710803D-12  0.00000000D+00  0.00000000D+00
  0.00000000D+00  0.00000000D+00  0.00000000D+00  0.00000000D+00 -0.81073323D-12
  0.00000000D+00 -0.12865407D-11  0.00000000D+00  0.00000000D+00  0.00000000D+00
  0.00000000D+00  0.77839255D-12  0.00000000D+00  0.00000000D+00 -0.12991003D-12
  0.00000000D+00  0.28459925D-12  0.00000000D+00 -0.56786190D-13  0.00000000D+00
  0.00000000D+00  0.00000000D+00  0.00000000D+00  0.00000000D+00  0.00000000D+00
 -0.74337568D-13  0.00000000D+00  0.28326265D-12  0.00000000D+00  0.00000000D+00
  0.00000000D+00  0.00000000D+00 -0.12924173D-12  0.00000000D+00
MO    6     MO 0.0        OCC NO =    0.0004777  ORB. ENERGY =    0.000000
  0.16557437D+00  0.32094778D+00  0.55045858D+00  0.89374542D+00  0.13699237D+01
  0.19148584D+01  0.23514157D+01  0.22498623D+01  0.13433779D+01  0.40982774D-03
  0.11207703D-02  0.56935442D-02  0.15704605D-01  0.42936406D-01  0.80306076D-01
  0.98689335D-01 -0.17548825D+01 -0.65809123D-01  0.38657438D+00 -0.15089205D-01
 -0.16664807D+01  0.12997818D+01  0.18080216D+01  0.10151791D+01  0.22071476D-02
  0.00000000D+00  0.00000000D+00  0.00000000D+00  0.00000000D+00  0.00000000D+00