 Title Card Required
GAUSSIAN             75 MOL ORBITALS    274 PRIMITIVES        1 NUCLEI
  O    1    (CENTRE  1)   0.00000000  0.00000000  0.00000000  CHARGE =  8.0
CENTRE ASSIGNMENTS    1  1  1  1  1  1  1  1  1  1  1  1  1  1  1  1  1  1  1  1
CENTRE ASSIGNMENTS    1  1  1  1  1  1  1  1  1  1  1  1  1  1  1  1  1  1  1  1
CENTRE ASSIGNMENTS    1  1  1  1  1  1  1  1  1  1  1  1  1  1  1  1  1  1  1  1
CENTRE ASSIGNMENTS    1  1  1  1  1  1  1  1  1  1  1  1  1  1  1  1  1  1  1  1
CENTRE ASSIGNMENTS    1  1  1  1  1  1  1  1  1  1  1  1  1  1  1  1  1  1  1  1
CENTRE ASSIGNMENTS    1  1  1  1  1  1  1  1  1  1  1  1  1  1  1  1  1  1  1  1
CENTRE ASSIGNMENTS    1  1  1  1  1  1  1  1  1  1  1  1  1  1  1  1  1  1  1  1
CENTRE ASSIGNMENTS    1  1  1  1  1  1  1  1  1  1  1  1  1  1  1  1  1  1  1  1
CENTRE ASSIGNMENTS    1  1  1  1  1  1  1  1  1  1  1  1  1  1  1  1  1  1  1  1
CENTRE ASSIGNMENTS    1  1  1  1  1  1  1  1  1  1  1  1  1  1  1  1  1  1  1  1
CENTRE ASSIGNMENTS    1  1  1  1  1  1  1  1  1  1  1  1  1  1  1  1  1  1  1  1
CENTRE ASSIGNMENTS    1  1  1  1  1  1  1  1  1  1  1  1  1  1  1  1  1  1  1  1
CENTRE ASSIGNMENTS    1  1  1  1  1  1  1  1  1  1  1  1  1  1  1  1  1  1  1  1
CENTRE ASSIGNMENTS    1  1  1  1  1  1  1  1  1  1  1  1  1  1
TYPE ASSIGNMENTS      1  1  1  1  1  1  1  1  1  1  1  1  1  1  1  1  1  1  1  1
TYPE ASSIGNMENTS      1  1  1  1  1  2  2  2  2  3  3  3  3  4  4  4  4  2  3  4
TYPE ASSIGNMENTS      2  3  4  2  3  4  2  3  4  2  3  4  2  3  4  2  3  4  2  3
TYPE ASSIGNMENTS      4  2  3  4  5  6  7  8  9 10  5  6  7  8  9 10  5  6  7  8
TYPE ASSIGNMENTS      9 10  5  6  7  8  9 10  5  6  7  8  9 10  5  6  7  8  9 10
TYPE ASSIGNMENTS      5  6  7  8  9 10  5  6  7  8  9 10 11 12 13 17 14 15 18 19
TYPE ASSIGNMENTS     16 20 11 12 13 17 14 15 18 19 16 20 11 12 13 17 14 15 18 19
TYPE ASSIGNMENTS     16 20 11 12 13 17 14 15 18 19 16 20 11 12 13 17 14 15 18 19
TYPE ASSIGNMENTS     16 20 11 12 13 17 14 15 18 19 16 20 23 29 32 27 22 28 35 34
TYPE ASSIGNMENTS     26 31 33 30 25 24 21 23 29 32 27 22 28 35 34 26 31 33 30 25
TYPE ASSIGNMENTS     24 21 23 29 32 27 22 28 35 34 26 31 33 30 25 24 21 23 29 32
TYPE ASSIGNMENTS     27 22 28 35 34 26 31 33 30 25 24 21 36 37 38 39 40 41 42 43
TYPE ASSIGNMENTS     44 45 46 47 48 49 50 51 52 53 54 55 56 36 37 38 39 40 41 42
TYPE ASSIGNMENTS     43 44 45 46 47 48 49 50 51 52 53 54 55 56
EXPONENTS  0.1642000D+06 0.2459000D+05 0.5592000D+04 0.1582000D+04 0.5161000D+03
EXPONENTS  0.1872000D+03 0.7393000D+02 0.3122000D+02 0.1381000D+02 0.1582000D+04
EXPONENTS  0.5161000D+03 0.1872000D+03 0.7393000D+02 0.3122000D+02 0.1381000D+02
EXPONENTS  0.6256000D+01 0.2776000D+01 0.1138000D+01 0.4600000D+00 0.1829000D+00
EXPONENTS  0.1294100D+02 0.2820000D+02 0.6144900D+02 0.1339000D+03 0.6550000D-01
EXPONENTS  0.1955000D+03 0.4616000D+02 0.1458000D+02 0.5296000D+01 0.1955000D+03
EXPONENTS  0.4616000D+02 0.1458000D+02 0.5296000D+01 0.1955000D+03 0.4616000D+02
EXPONENTS  0.1458000D+02 0.5296000D+01 0.2094000D+01 0.2094000D+01 0.2094000D+01
EXPONENTS  0.8471000D+00 0.8471000D+00 0.8471000D+00 0.3368000D+00 0.3368000D+00
EXPONENTS  0.3368000D+00 0.1285000D+00 0.1285000D+00 0.1285000D+00 0.1156000D+02
EXPONENTS  0.1156000D+02 0.1156000D+02 0.2832100D+02 0.2832100D+02 0.2832100D+02
EXPONENTS  0.6938700D+02 0.6938700D+02 0.6938700D+02 0.1699980D+03 0.1699980D+03
EXPONENTS  0.1699980D+03 0.4460000D-01 0.4460000D-01 0.4460000D-01 0.5879000D+01
EXPONENTS  0.5879000D+01 0.5879000D+01 0.5879000D+01 0.5879000D+01 0.5879000D+01
EXPONENTS  0.2307000D+01 0.2307000D+01 0.2307000D+01 0.2307000D+01 0.2307000D+01
EXPONENTS  0.2307000D+01 0.9050000D+00 0.9050000D+00 0.9050000D+00 0.9050000D+00
EXPONENTS  0.9050000D+00 0.9050000D+00 0.3550000D+00 0.3550000D+00 0.3550000D+00
EXPONENTS  0.3550000D+00 0.3550000D+00 0.3550000D+00 0.1400800D+02 0.1400800D+02
EXPONENTS  0.1400800D+02 0.1400800D+02 0.1400800D+02 0.1400800D+02 0.3724500D+02
EXPONENTS  0.3724500D+02 0.3724500D+02 0.3724500D+02 0.3724500D+02 0.3724500D+02
EXPONENTS  0.9902600D+02 0.9902600D+02 0.9902600D+02 0.9902600D+02 0.9902600D+02
EXPONENTS  0.9902600D+02 0.1310000D+00 0.1310000D+00 0.1310000D+00 0.1310000D+00
EXPONENTS  0.1310000D+00 0.1310000D+00 0.4016000D+01 0.4016000D+01 0.4016000D+01
EXPONENTS  0.4016000D+01 0.4016000D+01 0.4016000D+01 0.4016000D+01 0.4016000D+01
EXPONENTS  0.4016000D+01 0.4016000D+01 0.1554000D+01 0.1554000D+01 0.1554000D+01
EXPONENTS  0.1554000D+01 0.1554000D+01 0.1554000D+01 0.1554000D+01 0.1554000D+01
EXPONENTS  0.1554000D+01 0.1554000D+01 0.6010000D+00 0.6010000D+00 0.6010000D+00
EXPONENTS  0.6010000D+00 0.6010000D+00 0.6010000D+00 0.6010000D+00 0.6010000D+00
EXPONENTS  0.6010000D+00 0.6010000D+00 0.1265300D+02 0.1265300D+02 0.1265300D+02
EXPONENTS  0.1265300D+02 0.1265300D+02 0.1265300D+02 0.1265300D+02 0.1265300D+02
EXPONENTS  0.1265300D+02 0.1265300D+02 0.3873700D+02 0.3873700D+02 0.3873700D+02
EXPONENTS  0.3873700D+02 0.3873700D+02 0.3873700D+02 0.3873700D+02 0.3873700D+02
EXPONENTS  0.3873700D+02 0.3873700D+02 0.2370000D+00 0.2370000D+00 0.2370000D+00
EXPONENTS  0.2370000D+00 0.2370000D+00 0.2370000D+00 0.2370000D+00 0.2370000D+00
EXPONENTS  0.2370000D+00 0.2370000D+00 0.3350000D+01 0.3350000D+01 0.3350000D+01
EXPONENTS  0.3350000D+01 0.3350000D+01 0.3350000D+01 0.3350000D+01 0.3350000D+01
EXPONENTS  0.3350000D+01 0.3350000D+01 0.3350000D+01 0.3350000D+01 0.3350000D+01
EXPONENTS  0.3350000D+01 0.3350000D+01 0.1189000D+01 0.1189000D+01 0.1189000D+01
EXPONENTS  0.1189000D+01 0.1189000D+01 0.1189000D+01 0.1189000D+01 0.1189000D+01
EXPONENTS  0.1189000D+01 0.1189000D+01 0.1189000D+01 0.1189000D+01 0.1189000D+01
EXPONENTS  0.1189000D+01 0.1189000D+01 0.1488600D+02 0.1488600D+02 0.1488600D+02
EXPONENTS  0.1488600D+02 0.1488600D+02 0.1488600D+02 0.1488600D+02 0.1488600D+02
EXPONENTS  0.1488600D+02 0.1488600D+02 0.1488600D+02 0.1488600D+02 0.1488600D+02
EXPONENTS  0.1488600D+02 0.1488600D+02 0.5170000D+00 0.5170000D+00 0.5170000D+00
EXPONENTS  0.5170000D+00 0.5170000D+00 0.5170000D+00 0.5170000D+00 0.5170000D+00
EXPONENTS  0.5170000D+00 0.5170000D+00 0.5170000D+00 0.5170000D+00 0.5170000D+00
EXPONENTS  0.5170000D+00 0.5170000D+00 0.2319000D+01 0.2319000D+01 0.2319000D+01
EXPONENTS  0.2319000D+01 0.2319000D+01 0.2319000D+01 0.2319000D+01 0.2319000D+01
EXPONENTS  0.2319000D+01 0.2319000D+01 0.2319000D+01 0.2319000D+01 0.2319000D+01
EXPONENTS  0.2319000D+01 0.2319000D+01 0.2319000D+01 0.2319000D+01 0.2319000D+01
EXPONENTS  0.2319000D+01 0.2319000D+01 0.2319000D+01 0.1024000D+01 0.1024000D+01
EXPONENTS  0.1024000D+01 0.1024000D+01 0.1024000D+01 0.1024000D+01 0.1024000D+01
EXPONENTS  0.1024000D+01 0.1024000D+01 0.1024000D+01 0.1024000D+01 0.1024000D+01
EXPONENTS  0.1024000D+01 0.1024000D+01 0.1024000D+01 0.1024000D+01 0.1024000D+01
EXPONENTS  0.1024000D+01 0.1024000D+01 0.1024000D+01 0.1024000D+01
MO    1     MO 0.0        OCC NO =    1.9991492  ORB. ENERGY =    0.000000
  0.14998884D+00  0.29073694D+00  0.49864388D+00  0.80961711D+00  0.12409727D+01
  0.17346127D+01  0.21300768D+01  0.20380827D+01  0.12169256D+01  0.32830503D-02
  0.89782731D-02  0.45609875D-01  0.12580653D+00  0.34395520D+00  0.64331635D+00
  0.79058106D+00  0.84376409D-01 -0.14739380D-02  0.33295302D-03 -0.62714562D-04
  0.77714685D-02  0.36559276D-02  0.32549590D-02  0.17953784D-02  0.71271993D-05
  0.00000000D+00  0.00000000D+00  0.00000000D+00  0.00000000D+00  0.00000000D+00
  0.00000000D+00  0.00000000D+00  0.00000000D+00  0.00000000D+00  0.00000000D+00
  0.00000000D+00  0.00000000D+00  0.00000000D+00  0.00000000D+00  0.00000000D+00
  0.00000000D+00  0.00000000D+00  0.00000000D+00  0.00000000D+00  0.00000000D+00
  0.00000000D+00  0.00000000D+00  0.00000000D+00  0.00000000D+00  0.00000000D+00
  0.00000000D+00  0.00000000D+00  0.00000000D+00  0.00000000D+00  0.00000000D+00
  0.00000000D+00  0.00000000D+00  0.00000000D+00  0.00000000D+00  0.00000000D+00
  0.00000000D+00  0.00000000D+00  0.00000000D+00  0.00000000D+00 -0.94692200D-13
  0.51065581D-13  0.43626618D-13  0.25374866D-29  0.76827028D-30 -0.42842399D-14
  0.15893858D-13 -0.84993890D-14 -0.73944693D-14 -0.45041129D-30 -0.13701094D-30
  0.22800696D-14 -0.21606441D-14  0.10820669D-14  0.10785772D-14  0.67850591D-31
  0.20584916D-31 -0.11593102D-15  0.22269425D-15 -0.12385887D-15 -0.98835381D-16
 -0.83249605D-32 -0.24696730D-32 -0.18485002D-15  0.35345435D-12 -0.16525697D-12
 -0.18819737D-12 -0.83906328D-29 -0.25644914D-29 -0.57568326D-14 -0.11605157D-11
  0.45829390D-12  0.70222181D-12  0.30756702D-28  0.93721514D-29  0.63177655D-14
  0.26520054D-11 -0.86764324D-12 -0.17843622D-11 -0.76327417D-28 -0.23314742D-28
  0.39243516D-12 -0.11180672D-16  0.10041687D-16  0.11389850D-17  0.47980401D-33
  0.13334371D-33  0.33242261D-16  0.00000000D+00  0.00000000D+00  0.00000000D+00
  0.00000000D+00  0.00000000D+00  0.00000000D+00  0.00000000D+00  0.00000000D+00
  0.00000000D+00  0.00000000D+00  0.00000000D+00  0.00000000D+00  0.00000000D+00
  0.00000000D+00  0.00000000D+00  0.00000000D+00  0.00000000D+00  0.00000000D+00
  0.00000000D+00  0.00000000D+00  0.00000000D+00  0.00000000D+00  0.00000000D+00
  0.00000000D+00  0.00000000D+00  0.00000000D+00  0.00000000D+00  0.00000000D+00
  0.00000000D+00  0.00000000D+00  0.00000000D+00  0.00000000D+00  0.00000000D+00
  0.00000000D+00  0.00000000D+00  0.00000000D+00  0.00000000D+00  0.00000000D+00
  0.00000000D+00  0.00000000D+00  0.00000000D+00  0.00000000D+00  0.00000000D+00
  0.00000000D+00  0.00000000D+00  0.00000000D+00  0.00000000D+00  0.00000000D+00
  0.00000000D+00  0.00000000D+00  0.00000000D+00  0.00000000D+00  0.00000000D+00
  0.00000000D+00  0.00000000D+00  0.00000000D+00  0.00000000D+00  0.00000000D+00
  0.00000000D+00  0.00000000D+00 -0.63919876D-14  0.13798256D-13  0.15051983D-13
 -0.25378456D-13 -0.52918102D-14 -0.48878057D-31 -0.63659172D-31 -0.19190653D-31
  0.46346191D-30  0.23299943D-13  0.34740601D-13  0.16698879D-13  0.55274941D-31
 -0.44224218D-30 -0.66664702D-14  0.47087494D-15 -0.13597873D-14 -0.39266729D-15
  0.25009902D-14  0.21665245D-15  0.16043265D-31  0.36892439D-31  0.12889212D-31
 -0.99069776D-31 -0.24325824D-14 -0.34236087D-14 -0.90724744D-15 -0.20339669D-31
  0.86772297D-31  0.55663830D-15  0.14866866D-12 -0.22326103D-12 -0.36146909D-12
  0.41063308D-12  0.74406484D-14 -0.12630050D-28  0.46853557D-30 -0.51840003D-31
  0.62306473D-28 -0.53054289D-12 -0.56211614D-12  0.31682520D-12  0.12647330D-28
 -0.62462651D-28  0.35619615D-13 -0.28746473D-16  0.10221752D-15  0.55555567D-16
 -0.18800369D-15 -0.15728123D-16 -0.83554352D-33 -0.12488392D-33 -0.14745965D-34
  0.65175480D-32  0.11692327D-15  0.25735849D-15  0.38813170D-16  0.84045884D-33
 -0.64759200D-32 -0.25956074D-16  0.00000000D+00  0.00000000D+00  0.00000000D+00
  0.00000000D+00  0.00000000D+00  0.00000000D+00  0.00000000D+00  0.00000000D+00
  0.00000000D+00  0.00000000D+00  0.00000000D+00  0.00000000D+00  0.00000000D+00
  0.00000000D+00  0.00000000D+00  0.00000000D+00  0.00000000D+00  0.00000000D+00
  0.00000000D+00  0.00000000D+00  0.00000000D+00  0.00000000D+00  0.00000000D+00
  0.00000000D+00  0.00000000D+00  0.00000000D+00  0.00000000D+00  0.00000000D+00
  0.00000000D+00  0.00000000D+00  0.00000000D+00  0.00000000D+00  0.00000000D+00
  0.00000000D+00  0.00000000D+00  0.00000000D+00  0.00000000D+00  0.00000000D+00
  0.00000000D+00  0.00000000D+00  0.00000000D+00  0.00000000D+00
MO    2     MO 0.0        OCC NO =    0.0003034  ORB. ENERGY =    0.000000
  0.25663084D+00  0.49745079D+00  0.85317947D+00  0.13852545D+01  0.21233038D+01
  0.29679216D+01  0.36445604D+01  0.34871585D+01  0.20821592D+01 -0.79952668D-02
 -0.21864938D-01 -0.11107448D+00 -0.30637874D+00 -0.83763980D+00 -0.15666790D+01
 -0.19253152D+01 -0.30218091D+00  0.12312056D-01 -0.29539234D-02  0.59564612D-03
 -0.16275343D+01  0.26042149D+01  0.36585872D+01  0.18533793D+01 -0.69712652D-04
  0.00000000D+00  0.00000000D+00  0.00000000D+00  0.00000000D+00  0.00000000D+00
  0.00000000D+00  0.00000000D+00  0.00000000D+00  0.00000000D+00  0.00000000D+00
  0.00000000D+00  0.00000000D+00  0.00000000D+00  0.00000000D+00  0.00000000D+00
  0.00000000D+00  0.00000000D+00  0.00000000D+00  0.00000000D+00  0.00000000D+00
  0.00000000D+00  0.00000000D+00  0.00000000D+00  0.00000000D+00  0.00000000D+00
  0.00000000D+00  0.00000000D+00  0.00000000D+00  0.00000000D+00  0.00000000D+00
  0.00000000D+00  0.00000000D+00  0.00000000D+00  0.00000000D+00  0.00000000D+00
  0.00000000D+00  0.00000000D+00  0.00000000D+00  0.00000000D+00 -0.12466806D-12
 -0.22660780D-12  0.35127586D-12 -0.39496803D-30 -0.11958386D-30 -0.57605992D-12
  0.40209060D-13  0.18741528D-13 -0.58950588D-13  0.70105976D-31  0.21325647D-31
  0.17671153D-12 -0.60882616D-14  0.55178691D-16  0.60330829D-14 -0.10560943D-31
 -0.32040476D-32 -0.35000518D-14  0.40714079D-15 -0.33888325D-16 -0.37325246D-15
  0.12957855D-32  0.38440663D-33 -0.19207706D-13 -0.73803346D-12  0.55085973D-12
  0.18717373D-12  0.13051056D-29  0.39891570D-30  0.10819501D-11  0.10795433D-11
  0.38838500D-12 -0.14679283D-11 -0.47939645D-29 -0.14606634D-29 -0.17798270D-11
 -0.14803376D-11 -0.27852197D-11  0.42655573D-11  0.11876571D-28  0.36279138D-29
  0.17658883D-11 -0.30353501D-16 -0.27236943D-17  0.33077195D-16 -0.74681826D-34
 -0.20755048D-34  0.33570336D-14  0.00000000D+00  0.00000000D+00  0.00000000D+00
  0.00000000D+00  0.00000000D+00  0.00000000D+00  0.00000000D+00  0.00000000D+00
  0.00000000D+00  0.00000000D+00  0.00000000D+00  0.00000000D+00  0.00000000D+00
  0.00000000D+00  0.00000000D+00  0.00000000D+00  0.00000000D+00  0.00000000D+00
  0.00000000D+00  0.00000000D+00  0.00000000D+00  0.00000000D+00  0.00000000D+00
  0.00000000D+00  0.00000000D+00  0.00000000D+00  0.00000000D+00  0.00000000D+00
  0.00000000D+00  0.00000000D+00  0.00000000D+00  0.00000000D+00  0.00000000D+00
  0.00000000D+00  0.00000000D+00  0.00000000D+00  0.00000000D+00  0.00000000D+00
  0.00000000D+00  0.00000000D+00  0.00000000D+00  0.00000000D+00  0.00000000D+00
  0.00000000D+00  0.00000000D+00  0.00000000D+00  0.00000000D+00  0.00000000D+00
  0.00000000D+00  0.00000000D+00  0.00000000D+00  0.00000000D+00  0.00000000D+00
  0.00000000D+00  0.00000000D+00  0.00000000D+00  0.00000000D+00  0.00000000D+00
  0.00000000D+00  0.00000000D+00 -0.55861874D-12  0.13828484D-11  0.16997258D-11
 -0.25663779D-11 -0.56433302D-12  0.76073626D-32  0.99087417D-32  0.29870747D-32
 -0.72135847D-31  0.16519866D-11  0.35505886D-11  0.16862723D-11 -0.86030541D-32
  0.68832933D-31 -0.55637649D-12  0.65613877D-15 -0.13905839D-12 -0.88164029D-15
  0.25545033D-12  0.20183538D-14 -0.24971551D-32 -0.57424047D-32 -0.20062393D-32
  0.15420363D-31 -0.30551923D-14 -0.34917581D-12 -0.11228483D-13  0.31659016D-32
 -0.13506228D-31  0.23806125D-14  0.10757912D-10 -0.21313351D-10 -0.36745389D-10
  0.40589895D-10  0.65845686D-11  0.19661704D-29 -0.72940776D-31  0.80688274D-32
 -0.96995325D-29 -0.27802081D-10 -0.57829633D-10 -0.27620225D-11 -0.19688600D-29
  0.97238461D-29  0.50940173D-11 -0.34966743D-14  0.10559343D-13  0.10366464D-13
 -0.19300520D-13 -0.35479503D-14  0.13005360D-33  0.19438544D-34  0.22952476D-35
 -0.10144686D-32  0.10613581D-13  0.26223531D-13  0.10921237D-13 -0.13081868D-33
  0.10079891D-32 -0.35891364D-14  0.00000000D+00  0.00000000D+00  0.00000000D+00
  0.00000000D+00  0.00000000D+00  0.00000000D+00  0.00000000D+00  0.00000000D+00
  0.00000000D+00  0.00000000D+00  0.00000000D+00  0.00000000D+00  0.00000000D+00
  0.00000000D+00  0.00000000D+00  0.00000000D+00  0.00000000D+00  0.00000000D+00
  0.00000000D+00  0.00000000D+00  0.00000000D+00  0.00000000D+00  0.00000000D+00
  0.00000000D+00  0.00000000D+00  0.00000000D+00  0.00000000D+00  0.00000000D+00
  0.00000000D+00  0.00000000D+00  0.00000000D+00  0.00000000D+00  0.00000000D+00
  0.00000000D+00  0.00000000D+00  0.00000000D+00  0.00000000D+00  0.00000000D+00
  0.00000000D+00  0.00000000D+00  0.00000000D+00  0.00000000D+00
MO    3     MO 0.0        OCC NO =    0.0001614  ORB. ENERGY =    0.000000
  0.00000000D+00  0.00000000D+00  0.00000000D+00  0.00000000D+00  0.00000000D+00
  0.00000000D+00  0.00000000D+00  0.00000000D+00  0.00000000D+00  0.00000000D+00
  0.00000000D+00  0.00000000D+00  0.00000000D+00  0.00000000D+00  0.00000000D+00
  0.00000000D+00  0.00000000D+00  0.00000000D+00  0.00000000D+00  0.00000000D+00
  0.00000000D+00  0.00000000D+00  0.00000000D+00  0.00000000D+00  0.00000000D+00
  0.00000000D+00  0.00000000D+00  0.00000000D+00  0.00000000D+00  0.47099900D+00
  0.62388276D+00  0.69901635D+00  0.65088053D+00  0.00000000D+00  0.00000000D+00
  0.00000000D+00  0.00000000D+00  0.00000000D+00  0.31127025D-01  0.00000000D+00
  0.00000000D+00 -0.49182047D-02  0.00000000D+00  0.00000000D+00  0.78840300D-03
  0.00000000D+00  0.00000000D+00 -0.10149327D-03  0.00000000D+00  0.00000000D+00
  0.12288212D+02  0.00000000D+00  0.00000000D+00  0.44914268D+02  0.00000000D+00
  0.00000000D+00  0.38351670D+02  0.00000000D+00  0.00000000D+00  0.23467959D+02
  0.00000000D+00  0.00000000D+00  0.78861016D-05  0.00000000D+00  0.00000000D+00
  0.00000000D+00  0.00000000D+00  0.00000000D+00  0.00000000D+00  0.00000000D+00
  0.00000000D+00  0.00000000D+00  0.00000000D+00  0.00000000D+00  0.00000000D+00
  0.00000000D+00  0.00000000D+00  0.00000000D+00  0.00000000D+00  0.00000000D+00
  0.00000000D+00  0.00000000D+00  0.00000000D+00  0.00000000D+00  0.00000000D+00
  0.00000000D+00  0.00000000D+00  0.00000000D+00  0.00000000D+00  0.00000000D+00
  0.00000000D+00  0.00000000D+00  0.00000000D+00  0.00000000D+00  0.00000000D+00
  0.00000000D+00  0.00000000D+00  0.00000000D+00  0.00000000D+00  0.00000000D+00
  0.00000000D+00  0.00000000D+00  0.00000000D+00  0.00000000D+00  0.00000000D+00
  0.00000000D+00  0.00000000D+00  0.00000000D+00  0.00000000D+00  0.00000000D+00
  0.00000000D+00  0.00000000D+00  0.00000000D+00 -0.63589880D-13  0.00000000D+00
  0.00000000D+00  0.73139727D-13  0.00000000D+00  0.00000000D+00  0.11762991D-12
  0.00000000D+00  0.00000000D+00  0.00000000D+00  0.48878521D-13  0.00000000D+00
  0.00000000D+00 -0.70633136D-13  0.00000000D+00  0.00000000D+00 -0.76002428D-13
  0.00000000D+00  0.00000000D+00  0.00000000D+00 -0.37088265D-14  0.00000000D+00
  0.00000000D+00  0.57501731D-14  0.00000000D+00  0.00000000D+00  0.53763065D-14
  0.00000000D+00  0.00000000D+00  0.00000000D+00  0.53955881D-12  0.00000000D+00
  0.00000000D+00 -0.56427418D-12  0.00000000D+00  0.00000000D+00 -0.10544023D-11
  0.00000000D+00  0.00000000D+00  0.00000000D+00 -0.93441741D-11  0.00000000D+00
  0.00000000D+00  0.12648385D-10  0.00000000D+00  0.00000000D+00  0.15384137D-10
  0.00000000D+00  0.00000000D+00  0.00000000D+00  0.30868487D-15  0.00000000D+00
  0.00000000D+00 -0.49600511D-15  0.00000000D+00  0.00000000D+00 -0.43004951D-15
  0.00000000D+00  0.00000000D+00  0.00000000D+00  0.00000000D+00  0.00000000D+00
  0.00000000D+00  0.00000000D+00  0.00000000D+00  0.00000000D+00  0.00000000D+00
  0.00000000D+00  0.00000000D+00  0.00000000D+00  0.00000000D+00  0.00000000D+00
  0.00000000D+00  0.00000000D+00  0.00000000D+00  0.00000000D+00  0.00000000D+00
  0.00000000D+00  0.00000000D+00  0.00000000D+00  0.00000000D+00  0.00000000D+00
  0.00000000D+00  0.00000000D+00  0.00000000D+00  0.00000000D+00  0.00000000D+00
  0.00000000D+00  0.00000000D+00  0.00000000D+00  0.00000000D+00  0.00000000D+00
  0.00000000D+00  0.00000000D+00  0.00000000D+00  0.00000000D+00  0.00000000D+00
  0.00000000D+00  0.00000000D+00  0.00000000D+00  0.00000000D+00  0.00000000D+00
  0.00000000D+00  0.00000000D+00  0.00000000D+00  0.00000000D+00  0.00000000D+00
  0.00000000D+00  0.00000000D+00  0.00000000D+00  0.00000000D+00  0.00000000D+00
  0.00000000D+00  0.00000000D+00  0.00000000D+00  0.00000000D+00  0.00000000D+00
  0.00000000D+00  0.00000000D+00  0.00000000D+00 -0.98514660D-12  0.00000000D+00
  0.96436553D-12  0.00000000D+00 -0.19404157D-12  0.00000000D+00  0.00000000D+00
  0.00000000D+00  0.00000000D+00  0.00000000D+00  0.00000000D+00  0.30177830D-11
  0.00000000D+00  0.97605014D-12  0.00000000D+00  0.00000000D+00  0.00000000D+00
  0.00000000D+00 -0.99098891D-12  0.00000000D+00  0.00000000D+00  0.15526363D-12
  0.00000000D+00 -0.11086317D-12  0.00000000D+00  0.22160332D-13  0.00000000D+00
  0.00000000D+00  0.00000000D+00  0.00000000D+00  0.00000000D+00  0.00000000D+00
 -0.59899224D-12  0.00000000D+00 -0.11074015D-12  0.00000000D+00  0.00000000D+00
  0.00000000D+00  0.00000000D+00  0.15520211D-12  0.00000000D+00
MO    4     MO 0.0        OCC NO =    0.0001614  ORB. ENERGY =    0.000000
  0.00000000D+00  0.00000000D+00  0.00000000D+00  0.00000000D+00  0.00000000D+00
  0.00000000D+00  0.00000000D+00  0.00000000D+00  0.00000000D+00  0.00000000D+00
  0.00000000D+00  0.00000000D+00  0.00000000D+00  0.00000000D+00  0.00000000D+00
  0.00000000D+00  0.00000000D+00  0.00000000D+00  0.00000000D+00  0.00000000D+00
  0.00000000D+00  0.00000000D+00  0.00000000D+00  0.00000000D+00  0.00000000D+00
  0.00000000D+00  0.00000000D+00  0.00000000D+00  0.00000000D+00  0.00000000D+00
  0.00000000D+00  0.00000000D+00  0.00000000D+00  0.47099900D+00  0.62388276D+00
  0.69901635D+00  0.65088053D+00  0.00000000D+00  0.00000000D+00  0.31127025D-01
  0.00000000D+00  0.00000000D+00 -0.49182047D-02  0.00000000D+00  0.00000000D+00
  0.78840300D-03  0.00000000D+00  0.00000000D+00 -0.10149327D-03  0.00000000D+00
  0.00000000D+00  0.12288212D+02  0.00000000D+00  0.00000000D+00  0.44914268D+02
  0.00000000D+00  0.00000000D+00  0.38351670D+02  0.00000000D+00  0.00000000D+00
  0.23467959D+02  0.00000000D+00  0.00000000D+00  0.78861016D-05  0.00000000D+00
  0.00000000D+00  0.00000000D+00  0.00000000D+00  0.00000000D+00  0.00000000D+00
  0.00000000D+00  0.00000000D+00  0.00000000D+00  0.00000000D+00  0.00000000D+00
  0.00000000D+00  0.00000000D+00  0.00000000D+00  0.00000000D+00  0.00000000D+00
  0.00000000D+00  0.00000000D+00  0.00000000D+00  0.00000000D+00  0.00000000D+00
  0.00000000D+00  0.00000000D+00  0.00000000D+00  0.00000000D+00  0.00000000D+00
  0.00000000D+00  0.00000000D+00  0.00000000D+00  0.00000000D+00  0.00000000D+00
  0.00000000D+00  0.00000000D+00  0.00000000D+00  0.00000000D+00  0.00000000D+00
  0.00000000D+00  0.00000000D+00  0.00000000D+00  0.00000000D+00  0.00000000D+00
  0.00000000D+00  0.00000000D+00  0.00000000D+00  0.00000000D+00  0.00000000D+00
  0.00000000D+00  0.00000000D+00  0.00000000D+00  0.00000000D+00 -0.47891834D-13
  0.00000000D+00  0.00000000D+00  0.85633643D-13  0.00000000D+00  0.00000000D+00
  0.58041860D-13  0.00000000D+00  0.00000000D+00  0.00000000D+00  0.48183589D-13
  0.00000000D+00  0.00000000D+00 -0.75208544D-13  0.00000000D+00  0.00000000D+00
 -0.69342223D-13  0.00000000D+00  0.00000000D+00  0.00000000D+00 -0.36944523D-14
  0.00000000D+00  0.00000000D+00  0.57286627D-14  0.00000000D+00  0.00000000D+00
  0.53546942D-14  0.00000000D+00  0.00000000D+00  0.00000000D+00  0.50566536D-12
  0.00000000D+00  0.00000000D+00 -0.96048132D-12  0.00000000D+00  0.00000000D+00
 -0.55651477D-12  0.00000000D+00  0.00000000D+00  0.00000000D+00 -0.86368339D-11
  0.00000000D+00  0.00000000D+00  0.14459301D-10  0.00000000D+00  0.00000000D+00
  0.11451201D-10  0.00000000D+00  0.00000000D+00  0.00000000D+00  0.29342281D-15
  0.00000000D+00  0.00000000D+00 -0.46939977D-15  0.00000000D+00  0.00000000D+00
 -0.41086865D-15  0.00000000D+00  0.00000000D+00  0.00000000D+00  0.00000000D+00
  0.00000000D+00  0.00000000D+00  0.00000000D+00  0.00000000D+00  0.00000000D+00
  0.00000000D+00  0.00000000D+00  0.00000000D+00  0.00000000D+00  0.00000000D+00
  0.00000000D+00  0.00000000D+00  0.00000000D+00  0.00000000D+00  0.00000000D+00
  0.00000000D+00  0.00000000D+00  0.00000000D+00  0.00000000D+00  0.00000000D+00
  0.00000000D+00  0.00000000D+00  0.00000000D+00  0.00000000D+00  0.00000000D+00
  0.00000000D+00  0.00000000D+00  0.00000000D+00  0.00000000D+00  0.00000000D+00
  0.00000000D+00  0.00000000D+00  0.00000000D+00  0.00000000D+00  0.00000000D+00
  0.00000000D+00  0.00000000D+00  0.00000000D+00  0.00000000D+00  0.00000000D+00
  0.00000000D+00  0.00000000D+00  0.00000000D+00  0.00000000D+00  0.00000000D+00
  0.00000000D+00  0.00000000D+00  0.00000000D+00  0.00000000D+00  0.00000000D+00
  0.00000000D+00  0.00000000D+00  0.00000000D+00  0.00000000D+00  0.00000000D+00
  0.00000000D+00  0.00000000D+00 -0.19641880D-12  0.00000000D+00  0.99101111D-12
  0.00000000D+00 -0.99515891D-12  0.00000000D+00  0.00000000D+00  0.00000000D+00
  0.00000000D+00  0.00000000D+00  0.00000000D+00  0.97317685D-12  0.00000000D+00
  0.29979201D-11  0.00000000D+00  0.00000000D+00  0.00000000D+00  0.00000000D+00
 -0.98624178D-12  0.00000000D+00  0.00000000D+00  0.22021220D-13  0.00000000D+00
 -0.10939803D-12  0.00000000D+00  0.15457821D-12  0.00000000D+00  0.00000000D+00
  0.00000000D+00  0.00000000D+00  0.00000000D+00  0.00000000D+00 -0.11081417D-12
  0.00000000D+00 -0.59927519D-12  0.00000000D+00  0.00000000D+00  0.00000000D+00
  0.00000000D+00  0.15528628D-12  0.00000000D+00  0.00000000D+00
MO    5     MO 0.0        OCC NO =    0.0001614  ORB. ENERGY =    0.000000
  0.00000000D+00  0.00000000D+00  0.00000000D+00  0.00000000D+00  0.00000000D+00
  0.00000000D+00  0.00000000D+00  0.00000000D+00  0.00000000D+00  0.00000000D+00
  0.00000000D+00  0.00000000D+00  0.00000000D+00  0.00000000D+00  0.00000000D+00
  0.00000000D+00  0.00000000D+00  0.00000000D+00  0.00000000D+00  0.00000000D+00
  0.00000000D+00  0.00000000D+00  0.00000000D+00  0.00000000D+00  0.00000000D+00
  0.47099900D+00  0.62388276D+00  0.69901635D+00  0.65088053D+00  0.00000000D+00
  0.00000000D+00  0.00000000D+00  0.00000000D+00  0.00000000D+00  0.00000000D+00
  0.00000000D+00  0.00000000D+00  0.31127025D-01  0.00000000D+00  0.00000000D+00
 -0.49182047D-02  0.00000000D+00  0.00000000D+00  0.78840300D-03  0.00000000D+00
  0.00000000D+00 -0.10149327D-03  0.00000000D+00  0.00000000D+00  0.12288212D+02
  0.00000000D+00  0.00000000D+00  0.44914268D+02  0.00000000D+00  0.00000000D+00
  0.38351670D+02  0.00000000D+00  0.00000000D+00  0.23467959D+02  0.00000000D+00
  0.00000000D+00  0.78861016D-05  0.00000000D+00  0.00000000D+00  0.00000000D+00
  0.00000000D+00  0.00000000D+00  0.00000000D+00  0.00000000D+00  0.00000000D+00
  0.00000000D+00  0.00000000D+00  0.00000000D+00  0.00000000D+00  0.00000000D+00
  0.00000000D+00  0.00000000D+00  0.00000000D+00  0.00000000D+00  0.00000000D+00
  0.00000000D+00  0.00000000D+00  0.00000000D+00  0.00000000D+00  0.00000000D+00
  0.00000000D+00  0.00000000D+00  0.00000000D+00  0.00000000D+00  0.00000000D+00
  0.00000000D+00  0.00000000D+00  0.00000000D+00  0.00000000D+00  0.00000000D+00
  0.00000000D+00  0.00000000D+00  0.00000000D+00  0.00000000D+00  0.00000000D+00
  0.00000000D+00  0.00000000D+00  0.00000000D+00  0.00000000D+00  0.00000000D+00
  0.00000000D+00  0.00000000D+00  0.00000000D+00  0.00000000D+00  0.00000000D+00
  0.00000000D+00  0.00000000D+00 -0.52874237D-13  0.00000000D+00  0.00000000D+00
  0.72560294D-13  0.00000000D+00  0.00000000D+00  0.86062415D-13  0.00000000D+00
  0.00000000D+00  0.00000000D+00  0.47696460D-13  0.00000000D+00  0.00000000D+00
 -0.68886185D-13  0.00000000D+00  0.00000000D+00 -0.74203196D-13  0.00000000D+00
  0.00000000D+00  0.00000000D+00 -0.36509153D-14  0.00000000D+00  0.00000000D+00
  0.53266289D-14  0.00000000D+00  0.00000000D+00  0.56261171D-14  0.00000000D+00
  0.00000000D+00  0.00000000D+00  0.55334372D-12  0.00000000D+00  0.00000000D+00
 -0.77886337D-12  0.00000000D+00  0.00000000D+00 -0.88116779D-12  0.00000000D+00
  0.00000000D+00  0.00000000D+00 -0.81597931D-11  0.00000000D+00  0.00000000D+00
  0.10949425D-10  0.00000000D+00  0.00000000D+00  0.13529954D-10  0.00000000D+00
  0.00000000D+00  0.00000000D+00  0.29722436D-15  0.00000000D+00  0.00000000D+00
 -0.44403338D-15  0.00000000D+00  0.00000000D+00 -0.44763970D-15  0.00000000D+00
  0.00000000D+00  0.00000000D+00  0.00000000D+00  0.00000000D+00  0.00000000D+00
  0.00000000D+00  0.00000000D+00  0.00000000D+00  0.00000000D+00  0.00000000D+00
  0.00000000D+00  0.00000000D+00  0.00000000D+00  0.00000000D+00  0.00000000D+00
  0.00000000D+00  0.00000000D+00  0.00000000D+00  0.00000000D+00  0.00000000D+00
  0.00000000D+00  0.00000000D+00  0.00000000D+00  0.00000000D+00  0.00000000D+00
  0.00000000D+00  0.00000000D+00  0.00000000D+00  0.00000000D+00  0.00000000D+00
  0.00000000D+00  0.00000000D+00  0.00000000D+00  0.00000000D+00  0.00000000D+00
  0.00000000D+00  0.00000000D+00  0.00000000D+00  0.00000000D+00  0.00000000D+00
  0.00000000D+00  0.00000000D+00  0.00000000D+00  0.00000000D+00  0.00000000D+00
  0.00000000D+00  0.00000000D+00  0.00000000D+00  0.00000000D+00  0.00000000D+00
  0.00000000D+00  0.00000000D+00  0.00000000D+00  0.00000000D+00  0.00000000D+00
  0.00000000D+00  0.00000000D+00  0.00000000D+00  0.00000000D+00  0.00000000D+00
  0.00000000D+00  0.00000000D+00  0.00000000D+00  0.00000000D+00  0.00000000D+00
  0.00000000D+00  0.00000000D+00  0.00000000D+00 -0.98586665D-12  0.00000000D+00
  0.30040750D-11  0.00000000D+00 -0.98688402D-12  0.00000000D+00  0.00000000D+00
  0.00000000D+00  0.00000000D+00  0.97037499D-12  0.00000000D+00  0.97240973D-12
  0.00000000D+00  0.00000000D+00 -0.19427847D-12  0.00000000D+00  0.00000000D+00
  0.00000000D+00  0.00000000D+00  0.00000000D+00  0.00000000D+00  0.15514741D-12
  0.00000000D+00 -0.59915864D-12  0.00000000D+00  0.15511645D-12  0.00000000D+00
  0.00000000D+00  0.00000000D+00  0.00000000D+00 -0.11057527D-12  0.00000000D+00
 -0.11051336D-12  0.00000000D+00  0.00000000D+00  0.22108863D-13
MO    6     MO 0.0        OCC NO =    0.0000073  ORB. ENERGY =    0.000000
  0.48895684D+00  0.94778930D+00  0.16255565D+01  0.26393152D+01  0.40455149D+01
  0.56547590D+01  0.69439540D+01  0.66440574D+01  0.39671226D+01  0.13123340D-01
  0.35888860D-01  0.18231640D+00  0.50288658D+00  0.13748925D+01  0.25715291D+01
  0.31601905D+01  0.41905418D+00  0.11491321D-01 -0.32205897D-02  0.72945437D-03
 -0.10858951D+02 -0.18171933D+02  0.51013504D+01  0.11334809D+02 -0.89191871D-04
  0.00000000D+00  0.00000000D+00  0.00000000D+00  0.00000000D+00  0.00000000D+00